# Force coefficients
# dragDir       : (1.00000000e+00 0.00000000e+00 0.00000000e+00)
# sideDir       : (0.00000000e+00 0.00000000e+00 -1.00000000e+00)
# liftDir       : (0.00000000e+00 1.00000000e+00 0.00000000e+00)
# rollAxis      : (1.00000000e+00 0.00000000e+00 0.00000000e+00)
# pitchAxis     : (0.00000000e+00 0.00000000e+00 -1.00000000e+00)
# yawAxis       : (0.00000000e+00 1.00000000e+00 0.00000000e+00)
# magUInf       : 5.00000000e-01
# lRef          : 1.00000000e-01
# Aref          : 1.00000000e-03
# CofR          : (2.00000000e-01 2.00000000e-01 5.00000000e-03)
#
# Time          	Cd              	Cs              	Cl              	CmRoll          	CmPitch         	CmYaw           	Cd(f)           	Cd(r)           	Cs(f)           	Cs(r)           	Cl(f)           	Cl(r)           
0.001           	1.39244703e+03	2.52049404e-12	-2.19748132e+00	-1.27726078e-12	-8.87042981e-02	1.77411994e-13	6.96223513e+02	6.96223513e+02	1.43765902e-12	1.08283503e-12	-1.18744496e+00	-1.01003636e+00
0.0015          	2.44240885e+01	3.23685356e-15	3.65948880e-03	-1.71116029e-15	-1.67993583e-02	8.54760590e-17	1.22120442e+01	1.22120442e+01	1.70390284e-15	1.53295072e-15	-1.49696139e-02	1.86291027e-02
0.002           	1.91329269e+01	2.75392496e-15	-8.77956079e-03	-1.43119261e-15	5.04475609e-03	1.07956157e-16	9.56646343e+00	9.56646343e+00	1.48491864e-15	1.26900633e-15	6.54975700e-04	-9.43453649e-03
0.0025          	1.59682113e+01	2.49353213e-15	-9.30087165e-03	-1.27999313e-15	9.92157888e-03	1.22014682e-16	7.98410564e+00	7.98410564e+00	1.36878075e-15	1.12475139e-15	5.27114306e-03	-1.45720147e-02
0.003           	1.38757548e+01	2.29536037e-15	-8.97248315e-03	-1.16798565e-15	9.54426854e-03	1.29252852e-16	6.93787739e+00	6.93787739e+00	1.27693304e-15	1.01842733e-15	5.05802696e-03	-1.40305101e-02
0.0035          	1.23980570e+01	2.13265615e-15	-8.31471259e-03	-1.07797950e-15	7.90794496e-03	1.32580151e-16	6.19902849e+00	6.19902849e+00	1.19890823e-15	9.33747923e-16	3.75058866e-03	-1.20653013e-02
0.004           	1.12999539e+01	1.99400179e-15	-7.73332219e-03	-1.00246137e-15	6.26120127e-03	1.33606547e-16	5.64997696e+00	5.64997696e+00	1.13060744e-15	8.63394345e-16	2.39454018e-03	-1.01278624e-02
0.0045          	1.04519815e+01	1.87383735e-15	-6.99877911e-03	-9.37702350e-16	4.91867017e-03	1.33302465e-16	5.22599076e+00	5.22599076e+00	1.07022114e-15	8.03616211e-16	1.41928062e-03	-8.41805972e-03
0.005           	9.77571345e+00	1.76838557e-15	-6.38910479e-03	-8.81289427e-16	3.89435458e-03	1.32251313e-16	4.88785672e+00	4.88785672e+00	1.01644410e-15	7.51941472e-16	6.99802179e-04	-7.08890697e-03
0.0055          	9.22113488e+00	1.67413655e-15	-5.93245663e-03	-8.31203413e-16	3.13047031e-03	1.30679521e-16	4.61056744e+00	4.61056744e+00	9.67747795e-16	7.06388754e-16	1.64241992e-04	-6.09669862e-03
0.006           	8.75636916e+00	1.58936404e-15	-5.47697849e-03	-7.86358972e-16	2.56083338e-03	1.28848904e-16	4.37818458e+00	4.37818458e+00	9.23530925e-16	6.65833117e-16	-1.77655871e-04	-5.29932262e-03
0.0065          	8.35999250e+00	1.51260299e-15	-5.10493811e-03	-7.45900455e-16	2.13170840e-03	1.26885109e-16	4.17999625e+00	4.17999625e+00	8.83186602e-16	6.29416384e-16	-4.20760655e-04	-4.68417746e-03
0.007           	8.01681885e+00	1.44265787e-15	-4.72744116e-03	-7.09148955e-16	1.80350017e-03	1.24867227e-16	4.00840943e+00	4.00840943e+00	8.46196163e-16	5.96461709e-16	-5.60220407e-04	-4.16722075e-03
0.0075          	7.71595785e+00	1.37871047e-15	-4.44358836e-03	-6.75598330e-16	1.54620246e-03	1.22886014e-16	3.85797892e+00	3.85797892e+00	8.12241251e-16	5.66469222e-16	-6.75591722e-04	-3.76799664e-03
0.008           	7.44997657e+00	1.31988195e-15	-4.17555602e-03	-6.44832974e-16	1.34256979e-03	1.20893392e-16	3.72498828e+00	3.72498828e+00	7.80834369e-16	5.39047585e-16	-7.45208221e-04	-3.43034780e-03
0.0085          	7.21251490e+00	1.26564363e-15	-3.96475016e-03	-6.16522586e-16	1.17862553e-03	1.18950142e-16	3.60625745e+00	3.60625745e+00	7.51771958e-16	5.13871674e-16	-8.03749551e-04	-3.16100061e-03
0.009           	6.99881294e+00	1.21547113e-15	-3.77594848e-03	-5.90377879e-16	1.04452635e-03	1.17070367e-16	3.49940647e+00	3.49940647e+00	7.24805931e-16	4.90665197e-16	-8.43447895e-04	-2.93250059e-03
0.0095          	6.80521121e+00	1.16894240e-15	-3.61411713e-03	-5.66167405e-16	9.33244434e-04	1.15261740e-16	3.40260560e+00	3.40260560e+00	6.99732939e-16	4.69209460e-16	-8.73814131e-04	-2.74030300e-03
0.01            	6.62878778e+00	1.12568803e-15	-3.47202439e-03	-5.43689984e-16	8.39692194e-04	1.13527975e-16	3.31439389e+00	3.31439389e+00	6.76371990e-16	4.49316039e-16	-8.96320000e-04	-2.57570439e-03
0.0105          	6.46718146e+00	1.08539177e-15	-3.34696955e-03	-5.22774212e-16	7.60128178e-04	1.11870400e-16	3.23359073e+00	3.23359073e+00	6.54566285e-16	4.30825486e-16	-9.13356596e-04	-2.43361295e-03
0.011           	6.31845931e+00	1.04777564e-15	-3.24003243e-03	-5.03269321e-16	6.91761505e-04	1.10287952e-16	3.15922966e+00	3.15922966e+00	6.34175771e-16	4.13599867e-16	-9.28254711e-04	-2.31177772e-03
0.0115          	6.18103418e+00	1.01259984e-15	-3.14495512e-03	-4.85048115e-16	6.32472598e-04	1.08780240e-16	3.09051709e+00	3.09051709e+00	6.15080161e-16	3.97519681e-16	-9.40004962e-04	-2.20495016e-03
0.012           	6.05356686e+00	9.79644607e-16	-3.06178398e-03	-4.67992393e-16	5.80636403e-04	1.07344093e-16	3.02678343e+00	3.02678343e+00	5.97166396e-16	3.82478211e-16	-9.50255586e-04	-2.11152839e-03
0.0125          	5.93493820e+00	9.48720556e-16	-2.98742292e-03	-4.52000994e-16	5.34985687e-04	1.05976839e-16	2.96746910e+00	2.96746910e+00	5.80337117e-16	3.68383438e-16	-9.58725775e-04	-2.02869715e-03
0.013           	5.82419608e+00	9.19658765e-16	-2.92393583e-03	-4.36984136e-16	4.94517198e-04	1.04675395e-16	2.91209804e+00	2.91209804e+00	5.64504777e-16	3.55153988e-16	-9.67450715e-04	-1.95648511e-03
0.0135          	5.72052712e+00	8.92304049e-16	-2.86721747e-03	-4.22859540e-16	4.58429817e-04	1.03436391e-16	2.86026356e+00	2.86026356e+00	5.49588415e-16	3.42715634e-16	-9.75178917e-04	-1.89203855e-03
0.014           	5.62323015e+00	8.66519518e-16	-2.81547113e-03	-4.09554849e-16	4.26075490e-04	1.02256507e-16	2.81161508e+00	2.81161508e+00	5.35516266e-16	3.31003252e-16	-9.81660077e-04	-1.83381106e-03
0.0145          	5.53169905e+00	8.42181181e-16	-2.76646207e-03	-3.97004590e-16	3.96927553e-04	1.01132442e-16	2.76584953e+00	2.76584953e+00	5.22223032e-16	3.19958149e-16	-9.86303482e-04	-1.78015859e-03
0.015           	5.44540484e+00	8.19178044e-16	-2.72448624e-03	-3.85150362e-16	3.70547689e-04	1.00061019e-16	2.72270242e+00	2.72270242e+00	5.09650041e-16	3.09528003e-16	-9.91695429e-04	-1.73279081e-03
0.0155          	5.36379515e+00	7.97400475e-16	-2.68824169e-03	-3.73935834e-16	3.46576843e-04	9.90391849e-17	2.68189757e+00	2.68189757e+00	4.97739422e-16	2.99661053e-16	-9.97544003e-04	-1.69069769e-03
0.016           	5.28673514e+00	7.76773192e-16	-2.65092689e-03	-3.63321033e-16	3.24701122e-04	9.80612145e-17	2.64336757e+00	2.64336757e+00	4.86447810e-16	2.90325381e-16	-1.00076232e-03	-1.65016456e-03
0.0165          	5.21358737e+00	7.57200714e-16	-2.61905917e-03	-3.53252624e-16	3.04678494e-04	9.71294958e-17	2.60679369e+00	2.60679369e+00	4.75729853e-16	2.81470861e-16	-1.00485109e-03	-1.61420808e-03
0.017           	5.14412691e+00	7.38608908e-16	-2.58760239e-03	-3.43694576e-16	2.86289134e-04	9.62386840e-17	2.57206346e+00	2.57206346e+00	4.65543138e-16	2.73065770e-16	-1.00751206e-03	-1.58009033e-03
0.0175          	5.07806873e+00	7.20927784e-16	-2.56089819e-03	-3.34609878e-16	2.69345071e-04	9.53862427e-17	2.53903436e+00	2.53903436e+00	4.55850135e-16	2.65077649e-16	-1.01110402e-03	-1.54979417e-03
0.018           	5.01515861e+00	7.04094706e-16	-2.53397219e-03	-3.25966024e-16	2.53687375e-04	9.45698510e-17	2.50757931e+00	2.50757931e+00	4.46617204e-16	2.57477502e-16	-1.01329872e-03	-1.52067347e-03
0.0185          	4.95516717e+00	6.88050061e-16	-2.50804284e-03	-3.17731719e-16	2.39179047e-04	9.37871785e-17	2.47758358e+00	2.47758358e+00	4.37812209e-16	2.50237852e-16	-1.01484237e-03	-1.49320047e-03
0.019           	4.89788746e+00	6.72739635e-16	-2.48544252e-03	-3.09878597e-16	2.25701110e-04	9.30360817e-17	2.44894373e+00	2.44894373e+00	4.29405899e-16	2.43333736e-16	-1.01702015e-03	-1.46842237e-03
0.0195          	4.84313347e+00	6.58115326e-16	-2.46385868e-03	-3.02381948e-16	2.13149704e-04	9.23146308e-17	2.42156674e+00	2.42156674e+00	4.21372294e-16	2.36743032e-16	-1.01877964e-03	-1.44507904e-03
0.02            	4.79073744e+00	6.44132529e-16	-2.44370970e-03	-2.95218364e-16	2.01433758e-04	9.16210106e-17	2.39536872e+00	2.39536872e+00	4.13687275e-16	2.30445254e-16	-1.02042109e-03	-1.42328861e-03
0.0205          	4.74054542e+00	6.30749898e-16	-2.42819371e-03	-2.88366249e-16	1.90473645e-04	9.09534925e-17	2.37027271e+00	2.37027271e+00	4.06328442e-16	2.24421457e-16	-1.02362321e-03	-1.40457050e-03
0.021           	4.69241761e+00	6.17926037e-16	-2.40830579e-03	-2.81804252e-16	1.80200956e-04	9.03103281e-17	2.34620880e+00	2.34620880e+00	3.99273346e-16	2.18652690e-16	-1.02395194e-03	-1.38435385e-03
0.0215          	4.64514738e+00	6.05520238e-16	-2.41717951e-03	-2.75433000e-16	1.67984831e-04	8.97115886e-17	2.32257369e+00	2.32257369e+00	3.92471708e-16	2.13048530e-16	-1.04060493e-03	-1.37657459e-03
0.022           	4.60082985e+00	5.93725908e-16	-2.40120549e-03	-2.69402129e-16	1.56719801e-04	8.91153644e-17	2.30041492e+00	2.30041492e+00	3.85978318e-16	2.07747590e-16	-1.04388295e-03	-1.35732255e-03
0.0225          	4.55827224e+00	5.82388993e-16	-2.38331206e-03	-2.63611706e-16	1.46274558e-04	8.85364862e-17	2.27913612e+00	2.27913612e+00	3.79730983e-16	2.02658010e-16	-1.04538147e-03	-1.33793059e-03
0.023           	4.51731769e+00	5.71487132e-16	-2.36788407e-03	-2.58047256e-16	1.36549858e-04	8.79767871e-17	2.25865884e+00	2.25865884e+00	3.73720353e-16	1.97766779e-16	-1.04739218e-03	-1.32049189e-03
0.0235          	4.47787879e+00	5.60995320e-16	-2.35558025e-03	-2.52695551e-16	1.27464355e-04	8.74350824e-17	2.23893940e+00	2.23893940e+00	3.67932743e-16	1.93062578e-16	-1.05032577e-03	-1.30525448e-03
0.024           	4.43987242e+00	5.50890103e-16	-2.34180988e-03	-2.47544489e-16	1.18952683e-04	8.69104650e-17	2.21993621e+00	2.21993621e+00	3.62355516e-16	1.88534586e-16	-1.05195226e-03	-1.28985763e-03
0.0245          	4.40322299e+00	5.41147697e-16	-2.32882254e-03	-2.42581681e-16	1.10957668e-04	8.64017418e-17	2.20161150e+00	2.20161150e+00	3.56975590e-16	1.84172106e-16	-1.05345360e-03	-1.27536894e-03
0.025           	4.36785986e+00	5.31747828e-16	-2.31489519e-03	-2.37796520e-16	1.03432361e-04	8.59080908e-17	2.18392993e+00	2.18392993e+00	3.51782005e-16	1.79965823e-16	-1.05401523e-03	-1.26087996e-03
0.0255          	4.33371562e+00	5.22674857e-16	-2.30690022e-03	-2.33180825e-16	9.63282160e-05	8.54288117e-17	2.16685781e+00	2.16685781e+00	3.46766240e-16	1.75908617e-16	-1.05712189e-03	-1.24977832e-03
0.026           	4.30073111e+00	5.13908149e-16	-2.29582941e-03	-2.28723980e-16	8.96152569e-05	8.49631104e-17	2.15036556e+00	2.15036556e+00	3.41917185e-16	1.71990964e-16	-1.05829945e-03	-1.23752996e-03
0.0265          	4.26884701e+00	5.05430077e-16	-2.28603197e-03	-2.24416854e-16	8.32561247e-05	8.45098358e-17	2.13442351e+00	2.13442351e+00	3.37224874e-16	1.68205203e-16	-1.05975986e-03	-1.22627211e-03
0.027           	4.23801201e+00	4.97228588e-16	-2.27527595e-03	-2.20253132e-16	7.72252938e-05	8.40687494e-17	2.11900601e+00	2.11900601e+00	3.32683043e-16	1.64545545e-16	-1.06041268e-03	-1.21486327e-03
0.0275          	4.20817491e+00	4.89288865e-16	-2.26658660e-03	-2.16225323e-16	7.14942882e-05	8.36390521e-17	2.10408745e+00	2.10408745e+00	3.28283485e-16	1.61005381e-16	-1.06179901e-03	-1.20478759e-03
0.028           	4.17846592e+00	4.81682662e-16	-2.24827413e-03	-2.12314885e-16	6.58928344e-05	8.32790180e-17	2.08923296e+00	2.08923296e+00	3.24120349e-16	1.57562313e-16	-1.05824423e-03	-1.19002990e-03
0.0285          	4.15054053e+00	4.74217538e-16	-2.23544545e-03	-2.08536535e-16	6.05153633e-05	8.28670205e-17	2.07527026e+00	2.07527026e+00	3.19975789e-16	1.54241749e-16	-1.05720736e-03	-1.17823809e-03
0.029           	4.12346230e+00	4.66981915e-16	-2.22673912e-03	-2.04875250e-16	5.53856723e-05	8.24667817e-17	2.06173115e+00	2.06173115e+00	3.15957739e-16	1.51024176e-16	-1.05798389e-03	-1.16875523e-03
0.0295          	4.09720607e+00	4.59958338e-16	-2.22045594e-03	-2.01324471e-16	5.04972938e-05	8.20756289e-17	2.04860304e+00	2.04860304e+00	3.12054798e-16	1.47903540e-16	-1.05973068e-03	-1.16072527e-03
0.03            	4.07174296e+00	4.53134807e-16	-2.21295164e-03	-1.97877278e-16	4.58369664e-05	8.16932600e-17	2.03587148e+00	2.03587148e+00	3.08260664e-16	1.44874144e-16	-1.06063885e-03	-1.15231279e-03
0.0305          	4.04703693e+00	4.46502899e-16	-2.20577046e-03	-1.94530476e-16	4.13845279e-05	8.13187853e-17	2.02351847e+00	2.02351847e+00	3.04570235e-16	1.41932664e-16	-1.06150070e-03	-1.14426976e-03
0.031           	4.02305756e+00	4.40054927e-16	-2.19643945e-03	-1.91279244e-16	3.71314939e-05	8.09523214e-17	2.01152878e+00	2.01152878e+00	3.00979785e-16	1.39075142e-16	-1.06108823e-03	-1.13535122e-03
0.0315          	3.99977647e+00	4.33779421e-16	-2.18957202e-03	-1.88117640e-16	3.30548787e-05	8.05929354e-17	1.99988824e+00	1.99988824e+00	2.97482646e-16	1.36296775e-16	-1.06173113e-03	-1.12784089e-03
0.032           	3.97716551e+00	4.27672511e-16	-2.18502082e-03	-1.85043807e-16	2.91420651e-05	8.02407563e-17	1.98858276e+00	1.98858276e+00	2.94077012e-16	1.33595499e-16	-1.06336835e-03	-1.12165248e-03
0.0325          	3.95519712e+00	4.21724433e-16	-2.17811847e-03	-1.82052543e-16	2.53860591e-05	7.98953527e-17	1.97759856e+00	1.97759856e+00	2.90757569e-16	1.30966864e-16	-1.06367318e-03	-1.11444529e-03
0.033           	3.93384612e+00	4.15930514e-16	-2.17268117e-03	-1.79140217e-16	2.17695263e-05	7.95569413e-17	1.96692306e+00	1.96692306e+00	2.87522198e-16	1.28408316e-16	-1.06457106e-03	-1.10811011e-03
0.0335          	3.91308792e+00	4.10285122e-16	-2.17313965e-03	-1.76305331e-16	1.82787568e-05	7.92250345e-17	1.95654396e+00	1.95654396e+00	2.84367596e-16	1.25917527e-16	-1.06829107e-03	-1.10484858e-03
0.034           	3.89290197e+00	4.04774952e-16	-2.17019327e-03	-1.73540379e-16	1.49096219e-05	7.88984916e-17	1.94645098e+00	1.94645098e+00	2.81285967e-16	1.23488984e-16	-1.07018701e-03	-1.10000626e-03
0.0345          	3.87326628e+00	3.99400954e-16	-2.16611268e-03	-1.70846325e-16	1.16664139e-05	7.85778294e-17	1.93663314e+00	1.93663314e+00	2.78278306e-16	1.21122648e-16	-1.07138993e-03	-1.09472275e-03
0.035           	3.85416138e+00	3.94157042e-16	-2.16180987e-03	-1.68219219e-16	8.53648399e-06	7.82629472e-17	1.92708069e+00	1.92708069e+00	2.75341468e-16	1.18815574e-16	-1.07236845e-03	-1.08944142e-03
0.0355          	3.83556693e+00	3.89034786e-16	-2.15651242e-03	-1.65655443e-16	5.51370983e-06	7.79530581e-17	1.91778347e+00	1.91778347e+00	2.72470451e-16	1.16564335e-16	-1.07274250e-03	-1.08376992e-03
0.036           	3.81746592e+00	3.84035963e-16	-2.15351553e-03	-1.63154574e-16	2.58926549e-06	7.76490676e-17	1.90873296e+00	1.90873296e+00	2.69667049e-16	1.14368914e-16	-1.07416850e-03	-1.07934703e-03
0.0365          	3.79983876e+00	3.79151412e-16	-2.14921561e-03	-1.60712659e-16	-2.43945234e-07	7.73500846e-17	1.89991938e+00	1.89991938e+00	2.66925790e-16	1.12225621e-16	-1.07485175e-03	-1.07436386e-03
0.037           	3.78266983e+00	3.74375491e-16	-2.14245313e-03	-1.58326666e-16	-2.98461300e-06	7.70557654e-17	1.89133491e+00	1.89133491e+00	2.64243511e-16	1.10131980e-16	-1.07421118e-03	-1.06824195e-03
0.0375          	3.76594296e+00	3.69705743e-16	-2.13664028e-03	-1.55996322e-16	-5.64632035e-06	7.67658528e-17	1.88297148e+00	1.88297148e+00	2.61618725e-16	1.08087019e-16	-1.07396646e-03	-1.06267382e-03
0.038           	3.74964584e+00	3.65134863e-16	-2.13710025e-03	-1.53717186e-16	-8.24636469e-06	7.64797636e-17	1.87482292e+00	1.87482292e+00	2.59047195e-16	1.06087668e-16	-1.07679649e-03	-1.06030376e-03
0.0385          	3.73376390e+00	3.60662859e-16	-2.12950971e-03	-1.51489483e-16	-1.07664141e-05	7.61980590e-17	1.86688195e+00	1.86688195e+00	2.56529489e-16	1.04133371e-16	-1.07552127e-03	-1.05398844e-03
0.039           	3.71827942e+00	3.56286319e-16	-2.12774510e-03	-1.49311202e-16	-1.32179300e-05	7.59203086e-17	1.85913971e+00	1.85913971e+00	2.54063468e-16	1.02222851e-16	-1.07709048e-03	-1.05065462e-03
0.0395          	3.70318585e+00	3.51999495e-16	-2.12292451e-03	-1.47179519e-16	-1.56069513e-05	7.56465330e-17	1.85159293e+00	1.85159293e+00	2.51646281e-16	1.00353215e-16	-1.07706920e-03	-1.04585530e-03
0.04            	3.68846356e+00	3.47800187e-16	-2.11913033e-03	-1.45093474e-16	-1.79361740e-05	7.53762074e-17	1.84423178e+00	1.84423178e+00	2.49276301e-16	9.85238860e-17	-1.07750134e-03	-1.04162899e-03
0.0405          	3.67410525e+00	3.43686012e-16	-2.11564668e-03	-1.43051447e-16	-2.02094432e-05	7.51094848e-17	1.83705262e+00	1.83705262e+00	2.46952491e-16	9.67335211e-17	-1.07803278e-03	-1.03761390e-03
0.041           	3.66009993e+00	3.39653108e-16	-2.10915469e-03	-1.41051216e-16	-2.24228152e-05	7.48463195e-17	1.83004997e+00	1.83004997e+00	2.44672873e-16	9.49802343e-17	-1.07700016e-03	-1.03215453e-03
0.0415          	3.64643449e+00	3.35700374e-16	-2.10640666e-03	-1.39092583e-16	-2.45886523e-05	7.45866674e-17	1.82321724e+00	1.82321724e+00	2.42436854e-16	9.32635194e-17	-1.07779198e-03	-1.02861468e-03
0.042           	3.63309644e+00	3.31822203e-16	-2.10345672e-03	-1.37173241e-16	-2.67104556e-05	7.43298100e-17	1.81654822e+00	1.81654822e+00	2.40240912e-16	9.15812917e-17	-1.07843882e-03	-1.02501791e-03
0.0425          	3.62008075e+00	3.28018540e-16	-2.10268956e-03	-1.35292187e-16	-2.87863151e-05	7.40763206e-17	1.81004037e+00	1.81004037e+00	2.38085591e-16	8.99329493e-17	-1.08013110e-03	-1.02255847e-03
0.043           	3.60737525e+00	3.24285940e-16	-2.09883213e-03	-1.33448230e-16	-3.08198973e-05	7.38257216e-17	1.80368763e+00	1.80368763e+00	2.35968692e-16	8.83172484e-17	-1.08023596e-03	-1.01859617e-03
0.0435          	3.59497271e+00	3.20622412e-16	-2.09896285e-03	-1.31639888e-16	-3.28184750e-05	7.35780863e-17	1.79748636e+00	1.79748636e+00	2.33889292e-16	8.67331196e-17	-1.08229990e-03	-1.01666295e-03
0.044           	3.58286206e+00	3.17025910e-16	-2.09820504e-03	-1.29866332e-16	-3.47780738e-05	7.33332959e-17	1.79143103e+00	1.79143103e+00	2.31846251e-16	8.51796593e-17	-1.08388060e-03	-1.01432445e-03
0.0445          	3.57103564e+00	3.13493861e-16	-2.09749969e-03	-1.28126603e-16	-3.67008874e-05	7.30911063e-17	1.78551782e+00	1.78551782e+00	2.29838037e-16	8.36558240e-17	-1.08545073e-03	-1.01204896e-03
0.045           	3.55948738e+00	3.10024163e-16	-2.10112642e-03	-1.26419263e-16	-3.85961628e-05	7.28515279e-17	1.77974369e+00	1.77974369e+00	2.27863609e-16	8.21605535e-17	-1.08915937e-03	-1.01196704e-03
0.0455          	3.54820873e+00	3.06615649e-16	-2.09712908e-03	-1.24743337e-16	-4.04479951e-05	7.26146747e-17	1.77410436e+00	1.77410436e+00	2.25922499e-16	8.06931500e-17	-1.08901254e-03	-1.00811655e-03
0.046           	3.53718786e+00	3.03266454e-16	-2.09585020e-03	-1.23098147e-16	-4.22671291e-05	7.23802711e-17	1.76859393e+00	1.76859393e+00	2.24013498e-16	7.92529558e-17	-1.09019223e-03	-1.00565797e-03
0.0465          	3.52642100e+00	2.99974082e-16	-2.09704659e-03	-1.21482474e-16	-4.40595759e-05	7.21482326e-17	1.76321050e+00	1.76321050e+00	2.22135274e-16	7.78388083e-17	-1.09258287e-03	-1.00446372e-03
0.047           	3.51590180e+00	2.96737160e-16	-2.09590203e-03	-1.19895609e-16	-4.58219069e-05	7.19185536e-17	1.75795090e+00	1.75795090e+00	2.20287134e-16	7.64500265e-17	-1.09377292e-03	-1.00212911e-03
0.0475          	3.50562294e+00	2.93554234e-16	-2.09620405e-03	-1.18336723e-16	-4.75586262e-05	7.16911597e-17	1.75281147e+00	1.75281147e+00	2.18468277e-16	7.50859575e-17	-1.09566065e-03	-1.00054340e-03
0.048           	3.49557786e+00	2.90423560e-16	-2.09617689e-03	-1.16804992e-16	-4.92696148e-05	7.14659545e-17	1.74778893e+00	1.74778893e+00	2.16677735e-16	7.37458258e-17	-1.09735806e-03	-9.98818828e-04
0.0485          	3.48576117e+00	2.87343778e-16	-2.09644311e-03	-1.15299497e-16	-5.09566039e-05	7.12429546e-17	1.74288059e+00	1.74288059e+00	2.14914844e-16	7.24289343e-17	-1.09917816e-03	-9.97264950e-04
0.049           	3.47616591e+00	2.84313915e-16	-2.09762603e-03	-1.13819853e-16	-5.26211082e-05	7.10220856e-17	1.73808295e+00	1.73808295e+00	2.13179043e-16	7.11348720e-17	-1.10143412e-03	-9.96191907e-04
0.0495          	3.46678876e+00	2.81331130e-16	-2.09952047e-03	-1.12365174e-16	-5.42667051e-05	7.08031027e-17	1.73339438e+00	1.73339438e+00	2.11468667e-16	6.98624621e-17	-1.10402694e-03	-9.95493529e-04
0.05            	3.45762090e+00	2.78395369e-16	-2.10000258e-03	-1.10934476e-16	-5.58895330e-05	7.05861787e-17	1.72881045e+00	1.72881045e+00	2.09783863e-16	6.86115060e-17	-1.10589082e-03	-9.94111758e-04
0.0505          	3.44865732e+00	2.75505603e-16	-2.10127550e-03	-1.09527560e-16	-5.74921080e-05	7.03712207e-17	1.72432866e+00	1.72432866e+00	2.08124022e-16	6.73815806e-17	-1.10812986e-03	-9.93145644e-04
0.051           	3.43989427e+00	2.72659635e-16	-2.10109187e-03	-1.08143397e-16	-5.90751257e-05	7.01581244e-17	1.71994713e+00	1.71994713e+00	2.06487942e-16	6.61716928e-17	-1.10962106e-03	-9.91470810e-04
0.0515          	3.43132699e+00	2.69856782e-16	-2.10252307e-03	-1.06781576e-16	-6.06421829e-05	6.99468660e-17	1.71566350e+00	1.71566350e+00	2.04875257e-16	6.49815249e-17	-1.11190372e-03	-9.90619350e-04
0.052           	3.42294968e+00	2.67095785e-16	-2.10332250e-03	-1.05441471e-16	-6.21923297e-05	6.97373905e-17	1.71147484e+00	1.71147484e+00	2.03285283e-16	6.38105018e-17	-1.11385358e-03	-9.89468923e-04
0.0525          	3.41475835e+00	2.64375639e-16	-2.10504081e-03	-1.04122537e-16	-6.37275281e-05	6.95296543e-17	1.70737917e+00	1.70737917e+00	2.01717474e-16	6.26581655e-17	-1.11624793e-03	-9.88792876e-04
0.053           	3.40674805e+00	2.61695227e-16	-2.10611948e-03	-1.02824157e-16	-6.52472415e-05	6.93236371e-17	1.70337402e+00	1.70337402e+00	2.00171251e-16	6.15239766e-17	-1.11830698e-03	-9.87812500e-04
0.0535          	3.39891535e+00	2.59053627e-16	-2.10719215e-03	-1.01545892e-16	-6.67525777e-05	6.91193017e-17	1.69945767e+00	1.69945767e+00	1.98646115e-16	6.04075118e-17	-1.12034865e-03	-9.86843497e-04
0.054           	3.39125576e+00	2.56449494e-16	-2.11067077e-03	-1.00287246e-16	-6.82480297e-05	6.89165066e-17	1.69562788e+00	1.69562788e+00	1.97141253e-16	5.93082403e-17	-1.12358342e-03	-9.87087357e-04
0.0545          	3.38376381e+00	2.53882333e-16	-2.11197031e-03	-9.90475523e-17	-6.97283634e-05	6.87153503e-17	1.69188191e+00	1.69188191e+00	1.95656517e-16	5.82258164e-17	-1.12571352e-03	-9.86256790e-04
0.055           	3.37643666e+00	2.51351290e-16	-2.11446788e-03	-9.78266154e-17	-7.11971602e-05	6.85157318e-17	1.68821833e+00	1.68821833e+00	1.94191377e-16	5.71599132e-17	-1.12843110e-03	-9.86036779e-04
0.0555          	3.36927112e+00	2.48854965e-16	-2.11566382e-03	-9.66236225e-17	-7.26538932e-05	6.83176463e-17	1.68463556e+00	1.68463556e+00	1.92745129e-16	5.61098362e-17	-1.13048580e-03	-9.85178017e-04
0.056           	3.36226250e+00	2.46393023e-16	-2.11887531e-03	-9.54384813e-17	-7.41015560e-05	6.81210227e-17	1.68113125e+00	1.68113125e+00	1.91317534e-16	5.50754889e-17	-1.13353921e-03	-9.85336097e-04
0.0565          	3.35540774e+00	2.43964267e-16	-2.12111927e-03	-9.42705292e-17	-7.55389520e-05	6.79258463e-17	1.67770387e+00	1.67770387e+00	1.89907980e-16	5.40562875e-17	-1.13609859e-03	-9.85020685e-04
0.057           	3.34870320e+00	2.41568068e-16	-2.12358415e-03	-9.31194234e-17	-7.69668357e-05	6.77320876e-17	1.67435160e+00	1.67435160e+00	1.88516122e-16	5.30519464e-17	-1.13875891e-03	-9.84825240e-04
0.0575          	3.34214575e+00	2.39203608e-16	-2.12610000e-03	-9.19847625e-17	-7.83861522e-05	6.75397159e-17	1.67107288e+00	1.67107288e+00	1.87141520e-16	5.20620879e-17	-1.14143615e-03	-9.84663847e-04
0.058           	3.33573244e+00	2.36870008e-16	-2.12943208e-03	-9.08661387e-17	-7.97982770e-05	6.73486828e-17	1.66786622e+00	1.66786622e+00	1.85783687e-16	5.10863211e-17	-1.14451432e-03	-9.84917764e-04
0.0585          	3.32945884e+00	2.34567135e-16	-2.13282300e-03	-8.97633648e-17	-8.12022638e-05	6.71589980e-17	1.66472942e+00	1.66472942e+00	1.84442566e-16	5.01245697e-17	-1.14761376e-03	-9.85209237e-04
0.059           	3.32332311e+00	2.32293564e-16	-2.13578686e-03	-8.86757661e-17	-8.25987577e-05	6.69706110e-17	1.66166155e+00	1.66166155e+00	1.83117393e-16	4.91761708e-17	-1.15049219e-03	-9.85294670e-04
0.0595          	3.31732193e+00	2.30048976e-16	-2.13895244e-03	-8.76031812e-17	-8.39884548e-05	6.67834936e-17	1.65866096e+00	1.65866096e+00	1.81807982e-16	4.82409945e-17	-1.15346467e-03	-9.85487764e-04
0.06            	3.31145234e+00	2.27832610e-16	-2.14245214e-03	-8.65452119e-17	-8.53720680e-05	6.65976215e-17	1.65572617e+00	1.65572617e+00	1.80513926e-16	4.73186834e-17	-1.15659814e-03	-9.85854002e-04
0.0605          	3.30571171e+00	2.25644103e-16	-2.14578992e-03	-8.55015331e-17	-8.67498873e-05	6.64130945e-17	1.65285585e+00	1.65285585e+00	1.79235146e-16	4.64089572e-17	-1.15964485e-03	-9.86145073e-04
0.061           	3.30009700e+00	2.23482876e-16	-2.14964610e-03	-8.44719274e-17	-8.81225054e-05	6.62298115e-17	1.65004850e+00	1.65004850e+00	1.77971250e-16	4.55116267e-17	-1.16294555e-03	-9.86700544e-04
0.0615          	3.29460644e+00	2.21347872e-16	-2.15376842e-03	-8.34559121e-17	-8.94908764e-05	6.60477293e-17	1.64730322e+00	1.64730322e+00	1.76721666e-16	4.46262069e-17	-1.16637509e-03	-9.87393333e-04
0.062           	3.28923643e+00	2.19238916e-16	-2.15760907e-03	-8.24533108e-17	-9.08544130e-05	6.58668901e-17	1.64461821e+00	1.64461821e+00	1.75486348e-16	4.37525677e-17	-1.16965895e-03	-9.87950123e-04
0.0625          	3.28398509e+00	2.17155148e-16	-2.16130101e-03	-8.14637581e-17	-9.22134037e-05	6.56871504e-17	1.64199255e+00	1.64199255e+00	1.74264725e-16	4.28904237e-17	-1.17286391e-03	-9.88437101e-04
0.063           	3.27884956e+00	2.15095944e-16	-2.16620085e-03	-8.04870473e-17	-9.35694015e-05	6.55083143e-17	1.63942478e+00	1.63942478e+00	1.73056287e-16	4.20396579e-17	-1.17666983e-03	-9.89531024e-04
0.0635          	3.27382785e+00	2.13060315e-16	-2.17035373e-03	-7.95227307e-17	-9.49215826e-05	6.53303694e-17	1.63691393e+00	1.63691393e+00	1.71860527e-16	4.11997883e-17	-1.18009845e-03	-9.90255281e-04
0.064           	3.26891753e+00	2.11048323e-16	-2.17489804e-03	-7.85706637e-17	-9.62707248e-05	6.51534504e-17	1.63445877e+00	1.63445877e+00	1.70677612e-16	4.03707113e-17	-1.18371975e-03	-9.91178298e-04
0.0645          	3.26411649e+00	2.09059291e-16	-2.17943777e-03	-7.76305519e-17	-9.76172353e-05	6.49774666e-17	1.63205825e+00	1.63205825e+00	1.69507112e-16	3.95521789e-17	-1.18733612e-03	-9.92101651e-04
0.065           	3.25939548e+00	2.07090940e-16	-2.19068483e-03	-7.67005129e-17	-9.89611324e-05	6.48035830e-17	1.62969774e+00	1.62969774e+00	1.68349053e-16	3.87418870e-17	-1.19430355e-03	-9.96381282e-04
0.0655          	3.25483373e+00	2.05150063e-16	-2.18938061e-03	-7.57861466e-17	-1.00303952e-04	6.46289588e-17	1.62741687e+00	1.62741687e+00	1.67203990e-16	3.79460726e-17	-1.19499426e-03	-9.94386352e-04
0.066           	3.25034747e+00	2.03228251e-16	-2.19451807e-03	-7.48805943e-17	-1.01644721e-04	6.44563047e-17	1.62517373e+00	1.62517373e+00	1.66070430e-16	3.71578208e-17	-1.19890375e-03	-9.95614313e-04
0.0665          	3.24596173e+00	2.01327875e-16	-2.19979295e-03	-7.39861120e-17	-1.02983466e-04	6.42847111e-17	1.62298087e+00	1.62298087e+00	1.64948649e-16	3.63792266e-17	-1.20287994e-03	-9.96913008e-04
0.067           	3.24167516e+00	1.99449079e-16	-2.20485183e-03	-7.31024584e-17	-1.04321243e-04	6.41144186e-17	1.62083758e+00	1.62083758e+00	1.63838958e-16	3.56101207e-17	-1.20674716e-03	-9.98104671e-04
0.0675          	3.23748564e+00	1.97590571e-16	-2.21055204e-03	-7.22294775e-17	-1.05657917e-04	6.39449641e-17	1.61874282e+00	1.61874282e+00	1.62740249e-16	3.48503212e-17	-1.21093394e-03	-9.99618104e-04
0.068           	3.23339144e+00	1.95752577e-16	-2.21601093e-03	-7.13668810e-17	-1.06994268e-04	6.37767002e-17	1.61669572e+00	1.61669572e+00	1.61652989e-16	3.40995884e-17	-1.21499973e-03	-1.00101119e-03
0.0685          	3.22939040e+00	1.93933660e-16	-2.22207174e-03	-7.05144992e-17	-1.08330210e-04	6.36089958e-17	1.61469520e+00	1.61469520e+00	1.60575826e-16	3.33578343e-17	-1.21936608e-03	-1.00270566e-03
0.069           	3.22548125e+00	1.92134257e-16	-2.22740586e-03	-6.96720368e-17	-1.09665610e-04	6.34423587e-17	1.61274062e+00	1.61274062e+00	1.59509487e-16	3.26247697e-17	-1.22336854e-03	-1.00403732e-03
0.0695          	3.22166178e+00	1.90353440e-16	-2.23432451e-03	-6.88394144e-17	-1.11002363e-04	6.32763883e-17	1.61083089e+00	1.61083089e+00	1.58453108e-16	3.19003319e-17	-1.22816462e-03	-1.00615989e-03
0.07            	3.21793060e+00	1.88591170e-16	-2.24025684e-03	-6.80163351e-17	-1.12338104e-04	6.31113700e-17	1.60896530e+00	1.60896530e+00	1.57406955e-16	3.11842150e-17	-1.23246652e-03	-1.00779031e-03
0.0705          	3.21428639e+00	1.86846294e-16	-2.24683986e-03	-6.72024601e-17	-1.13675907e-04	6.29468103e-17	1.60714319e+00	1.60714319e+00	1.56369957e-16	3.04763365e-17	-1.23709584e-03	-1.00974402e-03
0.071           	3.21072674e+00	1.85119494e-16	-2.25261045e-03	-6.63978817e-17	-1.15012867e-04	6.27832336e-17	1.60536337e+00	1.60536337e+00	1.55342980e-16	2.97765134e-17	-1.24131809e-03	-1.01129236e-03
0.0715          	3.20725078e+00	1.83410034e-16	-2.25940571e-03	-6.56022603e-17	-1.16351747e-04	6.26204719e-17	1.60362539e+00	1.60362539e+00	1.54325489e-16	2.90845449e-17	-1.24605460e-03	-1.01335111e-03
0.072           	3.20385687e+00	1.81717264e-16	-2.26618844e-03	-6.48154516e-17	-1.17692502e-04	6.24583323e-17	1.60192843e+00	1.60192843e+00	1.53316964e-16	2.84002996e-17	-1.25078672e-03	-1.01540172e-03
0.0725          	3.20054341e+00	1.80041833e-16	-2.27318163e-03	-6.40373425e-17	-1.19033637e-04	6.22972585e-17	1.60027171e+00	1.60027171e+00	1.52318175e-16	2.77236578e-17	-1.25562445e-03	-1.01755718e-03