# Force coefficients
# dragDir       : (1.00000000e+00 0.00000000e+00 0.00000000e+00)
# sideDir       : (0.00000000e+00 0.00000000e+00 -1.00000000e+00)
# liftDir       : (0.00000000e+00 1.00000000e+00 0.00000000e+00)
# rollAxis      : (1.00000000e+00 0.00000000e+00 0.00000000e+00)
# pitchAxis     : (0.00000000e+00 0.00000000e+00 -1.00000000e+00)
# yawAxis       : (0.00000000e+00 1.00000000e+00 0.00000000e+00)
# magUInf       : 1.00000000e+00
# lRef          : 1.00000000e-01
# Aref          : 1.00000000e-03
# CofR          : (2.00000000e-01 2.00000000e-01 5.00000000e-03)
#
# Time          	Cd              	Cs              	Cl              	CmRoll          	CmPitch         	CmYaw           	Cd(f)           	Cd(r)           	Cs(f)           	Cs(r)           	Cl(f)           	Cl(r)           
0.001           	6.90401407e+02	2.18847209e-12	-1.10572422e+00	-7.91869373e-13	-4.92958731e-02	-1.61106559e-13	3.45200704e+02	3.45200704e+02	9.33129486e-13	1.25534260e-12	-6.02157982e-01	-5.03566235e-01
0.0015          	9.53005797e+00	1.94581793e-15	2.97991588e-03	-5.60732752e-16	-3.18995771e-02	-2.92962089e-16	4.76502899e+00	4.76502899e+00	6.79946874e-16	1.26587105e-15	-3.04096192e-02	3.33895350e-02
0.002           	8.34186916e+00	1.58638630e-15	-2.25651133e-03	-4.30555367e-16	-1.99948424e-02	-2.29457382e-16	4.17093458e+00	4.17093458e+00	5.63735769e-16	1.02265053e-15	-2.11230981e-02	1.88665868e-02
0.0025          	7.52624431e+00	1.45870452e-15	-3.07710463e-03	-3.84435002e-16	-1.18382588e-02	-1.98579219e-16	3.76312215e+00	3.76312215e+00	5.30773039e-16	9.27931478e-16	-1.33768111e-02	1.02997064e-02
0.003           	6.88716515e+00	1.37561427e-15	-4.06069756e-03	-3.54642073e-16	-6.30362004e-03	-1.76333383e-16	3.44358257e+00	3.44358257e+00	5.11473752e-16	8.64140518e-16	-8.33396882e-03	4.27327125e-03
0.0035          	6.35684322e+00	1.31005913e-15	-5.27832132e-03	-3.31029337e-16	-2.59669781e-03	-1.57872586e-16	3.17842161e+00	3.17842161e+00	4.97156980e-16	8.12902152e-16	-5.23585847e-03	-4.24628459e-05
0.004           	5.90973131e+00	1.25549293e-15	-5.58975384e-03	-3.11410168e-16	-1.58735722e-04	-1.42239667e-16	2.95486565e+00	2.95486565e+00	4.85506800e-16	7.69986134e-16	-2.95361264e-03	-2.63614120e-03
0.0045          	5.53191144e+00	1.20873612e-15	-5.94739917e-03	-2.94520470e-16	1.40208442e-03	-1.28896917e-16	2.76595572e+00	2.76595572e+00	4.75471141e-16	7.33264976e-16	-1.57161517e-03	-4.37578400e-03
0.005           	5.20919842e+00	1.16714643e-15	-5.69178055e-03	-2.79470953e-16	2.36014194e-03	-1.17290554e-16	2.60459921e+00	2.60459921e+00	4.66282659e-16	7.00863768e-16	-4.85748335e-04	-5.20603222e-03
0.0055          	4.93179288e+00	1.12990997e-15	-5.62544428e-03	-2.65948286e-16	2.90734381e-03	-1.07144513e-16	2.46589644e+00	2.46589644e+00	4.57810471e-16	6.72099498e-16	9.46216727e-05	-5.72006595e-03
0.006           	4.69086782e+00	1.09558907e-15	-5.45307601e-03	-2.53485835e-16	3.17767589e-03	-9.81546074e-17	2.34543391e+00	2.34543391e+00	4.49639929e-16	6.45949143e-16	4.51137892e-04	-5.90421390e-03
0.0065          	4.48036382e+00	1.06424339e-15	-5.36386060e-03	-2.42136857e-16	3.26441902e-03	-9.02208695e-17	2.24018191e+00	2.24018191e+00	4.41900828e-16	6.22342567e-16	5.82488722e-04	-5.94634932e-03
0.007           	4.29529107e+00	1.03499266e-15	-5.08381015e-03	-2.31576989e-16	3.23225863e-03	-8.31132512e-17	2.14764554e+00	2.14764554e+00	4.34383077e-16	6.00609579e-16	6.90353558e-04	-5.77416371e-03
0.0075          	4.13141782e+00	1.00756982e-15	-4.89434097e-03	-2.21728297e-16	3.12567315e-03	-7.67294980e-17	2.06570891e+00	2.06570891e+00	4.27055410e-16	5.80514406e-16	6.78502663e-04	-5.57284363e-03
0.008           	3.98575158e+00	9.82106596e-16	-4.96878056e-03	-2.12620759e-16	2.97510814e-03	-7.09975981e-17	1.99287579e+00	1.99287579e+00	4.20055700e-16	5.62050896e-16	4.90717863e-04	-5.45949842e-03
0.0085          	3.85548786e+00	9.58110531e-16	-4.67192940e-03	-2.04093921e-16	2.80122594e-03	-6.58134536e-17	1.92774393e+00	1.92774393e+00	4.13241812e-16	5.44868719e-16	4.65261238e-04	-5.13719064e-03
0.009           	3.73838133e+00	9.35507557e-16	-4.59944485e-03	-1.96098798e-16	2.61763654e-03	-6.11028084e-17	1.86919067e+00	1.86919067e+00	4.06650970e-16	5.28856587e-16	3.17914109e-04	-4.91735896e-03
0.0095          	3.63257024e+00	9.13996435e-16	-4.49389808e-03	-1.88535393e-16	2.43340296e-03	-5.68019862e-17	1.81628512e+00	1.81628512e+00	4.00196232e-16	5.13800204e-16	1.86453924e-04	-4.68035200e-03
0.01            	3.53660154e+00	8.93539655e-16	-4.41190874e-03	-1.81385113e-16	2.25417620e-03	-5.28665075e-17	1.76830077e+00	1.76830077e+00	3.93903320e-16	4.99636335e-16	4.82218269e-05	-4.46013057e-03
0.0105          	3.44923816e+00	8.74084523e-16	-4.39008292e-03	-1.74619100e-16	2.08329178e-03	-4.92520346e-17	1.72461908e+00	1.72461908e+00	3.87790227e-16	4.86294296e-16	-1.11749676e-04	-4.27833324e-03
0.011           	3.36930147e+00	8.55398486e-16	-4.33967950e-03	-1.68154682e-16	1.92268539e-03	-4.59152170e-17	1.68465073e+00	1.68465073e+00	3.81784026e-16	4.73614460e-16	-2.47154356e-04	-4.09252514e-03
0.0115          	3.29607804e+00	8.37562705e-16	-4.28629723e-03	-1.62012443e-16	1.77320605e-03	-4.28398702e-17	1.64803902e+00	1.64803902e+00	3.75941482e-16	4.61621223e-16	-3.69942569e-04	-3.91635466e-03
0.012           	3.22862806e+00	8.20425912e-16	-4.30601337e-03	-1.56146716e-16	1.63496776e-03	-3.99879269e-17	1.61431403e+00	1.61431403e+00	3.70225029e-16	4.50200883e-16	-5.18038930e-04	-3.78797444e-03
0.0125          	3.16639803e+00	8.03966234e-16	-4.32454425e-03	-1.50534398e-16	1.50769097e-03	-3.73454886e-17	1.58319902e+00	1.58319902e+00	3.64637628e-16	4.39328605e-16	-6.54581154e-04	-3.66996309e-03
0.013           	3.10883425e+00	7.88085607e-16	-4.26369267e-03	-1.45141682e-16	1.39100516e-03	-3.48852266e-17	1.55441712e+00	1.55441712e+00	3.59157577e-16	4.28928030e-16	-7.40841177e-04	-3.52285149e-03
0.0135          	3.05542417e+00	7.72793233e-16	-4.16546219e-03	-1.39981002e-16	1.28421097e-03	-3.25878213e-17	1.52771209e+00	1.52771209e+00	3.53808795e-16	4.18984438e-16	-7.98520123e-04	-3.36694207e-03
0.014           	3.00578112e+00	7.58060962e-16	-4.29375286e-03	-1.35024456e-16	1.18644663e-03	-3.04393554e-17	1.50289056e+00	1.50289056e+00	3.48591126e-16	4.09469836e-16	-9.60429805e-04	-3.33332306e-03
0.0145          	2.95950780e+00	7.43786221e-16	-4.21011948e-03	-1.30242809e-16	1.09711954e-03	-2.84336286e-17	1.47975390e+00	1.47975390e+00	3.43459482e-16	4.00326739e-16	-1.00794020e-03	-3.20217927e-03
0.015           	2.91634328e+00	7.29979923e-16	-4.12800626e-03	-1.25637259e-16	1.01548848e-03	-2.65527484e-17	1.45817164e+00	1.45817164e+00	3.38437213e-16	3.91542710e-16	-1.04851465e-03	-3.07949161e-03
0.0155          	2.87601164e+00	7.16608162e-16	-4.03774408e-03	-1.21180648e-16	9.40862341e-04	-2.47816719e-17	1.43800582e+00	1.43800582e+00	3.33522409e-16	3.83085753e-16	-1.07800970e-03	-2.95973438e-03
0.016           	2.83820115e+00	7.03744942e-16	-4.19116581e-03	-1.16919763e-16	8.72405181e-04	-2.31086402e-17	1.41910058e+00	1.41910058e+00	3.28763831e-16	3.74981111e-16	-1.22317772e-03	-2.96798808e-03
0.0165          	2.80276648e+00	6.91207932e-16	-4.09789401e-03	-1.12782474e-16	8.09727310e-04	-2.15385087e-17	1.40138324e+00	1.40138324e+00	3.24065457e-16	3.67142475e-16	-1.23921969e-03	-2.85867431e-03
0.017           	2.76949578e+00	6.79048822e-16	-4.05997870e-03	-1.08764795e-16	7.52170818e-04	-2.00510055e-17	1.38474789e+00	1.38474789e+00	3.19473405e-16	3.59575416e-16	-1.27781853e-03	-2.78216017e-03
0.0175          	2.73817497e+00	6.67289147e-16	-4.00591164e-03	-1.04911357e-16	6.99346102e-04	-1.86400294e-17	1.36908748e+00	1.36908748e+00	3.15004544e-16	3.52284603e-16	-1.30360972e-03	-2.70230192e-03
0.018           	2.70873153e+00	6.55977620e-16	-3.95261230e-03	-1.01207600e-16	6.50837367e-04	-1.72833169e-17	1.35436577e+00	1.35436577e+00	3.10705493e-16	3.45272127e-16	-1.32546878e-03	-2.62714352e-03
0.0185          	2.68104732e+00	6.44873266e-16	-3.79655478e-03	-9.75772698e-17	6.06588324e-04	-1.60184896e-17	1.34052366e+00	1.34052366e+00	3.06418143e-16	3.38455122e-16	-1.29168907e-03	-2.50486571e-03
0.019           	2.65493664e+00	6.34038425e-16	-3.66861648e-03	-9.40532066e-17	5.65895871e-04	-1.48220341e-17	1.32746832e+00	1.32746832e+00	3.02197179e-16	3.31841247e-16	-1.26841237e-03	-2.40020411e-03
0.0195          	2.63022505e+00	6.23479170e-16	-3.59283466e-03	-9.06459736e-17	5.28161852e-04	-1.37004595e-17	1.31511253e+00	1.31511253e+00	2.98039125e-16	3.25440044e-16	-1.26825548e-03	-2.32457918e-03
0.02            	2.60682473e+00	6.13296769e-16	-3.81533756e-03	-8.73718073e-17	4.92472239e-04	-1.26188856e-17	1.30341237e+00	1.30341237e+00	2.94029499e-16	3.19267270e-16	-1.41519654e-03	-2.40014102e-03
0.0205          	2.58470673e+00	6.03409440e-16	-4.03614394e-03	-8.41978572e-17	4.58845629e-04	-1.15851405e-17	1.29235337e+00	1.29235337e+00	2.90119579e-16	3.13289860e-16	-1.55922634e-03	-2.47691760e-03
0.021           	2.56374623e+00	5.93697804e-16	-3.94748271e-03	-8.10916432e-17	4.27656072e-04	-1.06130157e-17	1.28187312e+00	1.28187312e+00	2.86235886e-16	3.07461918e-16	-1.54608528e-03	-2.40139743e-03
0.0215          	2.54393273e+00	5.84211679e-16	-3.85471358e-03	-7.80607546e-17	3.98626632e-04	-9.68886187e-18	1.27196636e+00	1.27196636e+00	2.82416978e-16	3.01794701e-16	-1.52873016e-03	-2.32598342e-03
0.022           	2.52508025e+00	5.75039123e-16	-3.84207842e-03	-7.51604055e-17	3.71506361e-04	-8.80342496e-18	1.26254013e+00	1.26254013e+00	2.78716136e-16	2.96322986e-16	-1.54953285e-03	-2.29254557e-03
0.0225          	2.50725327e+00	5.66089741e-16	-3.92209579e-03	-7.23322970e-17	3.46016740e-04	-7.95934329e-18	1.25362664e+00	1.25362664e+00	2.75085527e-16	2.91004214e-16	-1.61503115e-03	-2.30706463e-03
0.023           	2.49039514e+00	5.57277403e-16	-3.77930884e-03	-6.95518733e-17	3.22167667e-04	-7.16315344e-18	1.24519757e+00	1.24519757e+00	2.71475548e-16	2.85801855e-16	-1.56748675e-03	-2.21182208e-03
0.0235          	2.47439586e+00	5.48744528e-16	-3.94210726e-03	-6.68717919e-17	2.99542007e-04	-6.39569210e-18	1.23719793e+00	1.23719793e+00	2.67976572e-16	2.80767956e-16	-1.67151162e-03	-2.27059563e-03
0.024           	2.45922025e+00	5.40349249e-16	-3.75257344e-03	-6.42396492e-17	2.78355605e-04	-5.67065678e-18	1.22961013e+00	1.22961013e+00	2.64503968e-16	2.75845281e-16	-1.59793111e-03	-2.15464232e-03
0.0245          	2.44476508e+00	5.32225287e-16	-3.77674949e-03	-6.17159298e-17	2.58331825e-04	-4.97393649e-18	1.22238254e+00	1.22238254e+00	2.61138707e-16	2.71086580e-16	-1.63004292e-03	-2.14670657e-03
0.025           	2.43108562e+00	5.24239180e-16	-3.84821743e-03	-5.92352542e-17	2.39340470e-04	-4.31321849e-18	1.21554281e+00	1.21554281e+00	2.57806372e-16	2.66432809e-16	-1.68476824e-03	-2.16344918e-03
0.0255          	2.41812863e+00	5.16392489e-16	-3.70768313e-03	-5.68014625e-17	2.21504845e-04	-3.68474512e-18	1.20906431e+00	1.20906431e+00	2.54511499e-16	2.61880990e-16	-1.63233672e-03	-2.07534641e-03
0.026           	2.40588002e+00	5.08764868e-16	-3.80296286e-03	-5.44439085e-17	2.04309912e-04	-3.07767525e-18	1.20294001e+00	1.20294001e+00	2.51304759e-16	2.57460109e-16	-1.69717152e-03	-2.10579134e-03
0.0265          	2.39427680e+00	5.01350843e-16	-3.92620515e-03	-5.21595513e-17	1.87695090e-04	-2.49153927e-18	1.19713840e+00	1.19713840e+00	2.48183882e-16	2.53166961e-16	-1.77540748e-03	-2.15079766e-03
0.027           	2.38312915e+00	4.94045520e-16	-3.91567674e-03	-4.99222735e-17	1.71968264e-04	-1.93997098e-18	1.19156458e+00	1.19156458e+00	2.45082789e-16	2.48962731e-16	-1.78587010e-03	-2.12980663e-03
0.0275          	2.37267304e+00	4.86888657e-16	-3.87604130e-03	-4.77297571e-17	1.57005389e-04	-1.40905276e-18	1.18633652e+00	1.18633652e+00	2.42035276e-16	2.44853381e-16	-1.78101526e-03	-2.09502604e-03
0.028           	2.36273959e+00	4.79897455e-16	-3.90721688e-03	-4.56056090e-17	1.42655331e-04	-9.06874915e-19	1.18136980e+00	1.18136980e+00	2.39041853e-16	2.40855603e-16	-1.81095311e-03	-2.09626377e-03
0.0285          	2.35327574e+00	4.73023498e-16	-3.88082919e-03	-4.35298142e-17	1.28978528e-04	-4.36555973e-19	1.17663787e+00	1.17663787e+00	2.36075193e-16	2.36948305e-16	-1.81143607e-03	-2.06939312e-03
0.029           	2.34420893e+00	4.66358552e-16	-4.01659665e-03	-4.15295782e-17	1.15727553e-04	2.44312280e-20	1.17210446e+00	1.17210446e+00	2.33203707e-16	2.33154845e-16	-1.89257077e-03	-2.12402588e-03
0.0295          	2.33570520e+00	4.59787422e-16	-4.14943762e-03	-3.95516557e-17	1.02834302e-04	4.66165534e-19	1.16785260e+00	1.16785260e+00	2.30359877e-16	2.29427546e-16	-1.97188451e-03	-2.17755311e-03
0.03            	2.32773470e+00	4.53308174e-16	-4.02105525e-03	-3.76102388e-17	9.05944819e-05	8.79926750e-19	1.16386735e+00	1.16386735e+00	2.27534014e-16	2.25774160e-16	-1.91993314e-03	-2.10112211e-03
0.0305          	2.32017539e+00	4.46995168e-16	-4.08804117e-03	-3.57299619e-17	7.87057742e-05	1.28119004e-18	1.16008769e+00	1.16008769e+00	2.24778774e-16	2.22216394e-16	-1.96531481e-03	-2.12272636e-03
0.031           	2.31299813e+00	4.40782215e-16	-4.03229238e-03	-3.39015493e-17	6.73043223e-05	1.65170240e-18	1.15649906e+00	1.15649906e+00	2.22042810e-16	2.18739405e-16	-1.94884187e-03	-2.08345051e-03
0.0315          	2.30616664e+00	4.34663902e-16	-3.89144181e-03	-3.20964668e-17	5.64789569e-05	2.00371761e-18	1.15308332e+00	1.15308332e+00	2.19335669e-16	2.15328233e-16	-1.88924195e-03	-2.00219986e-03
0.032           	2.29980941e+00	4.28703176e-16	-4.01364941e-03	-3.03433420e-17	4.58392878e-05	2.34842534e-18	1.14990470e+00	1.14990470e+00	2.16700013e-16	2.12003163e-16	-1.96098542e-03	-2.05266400e-03
0.0325          	2.29381586e+00	4.22823704e-16	-3.97925758e-03	-2.86122703e-17	3.55498743e-05	2.67455437e-18	1.14690793e+00	1.14690793e+00	2.14086406e-16	2.08737298e-16	-1.95407891e-03	-2.02517866e-03
0.033           	2.28806777e+00	4.17084292e-16	-4.10012513e-03	-2.69550068e-17	2.54558361e-05	2.98222849e-18	1.14403389e+00	1.14403389e+00	2.11524374e-16	2.05559918e-16	-2.02460673e-03	-2.07551840e-03
0.0335          	2.28253619e+00	4.11477096e-16	-4.32197513e-03	-2.53391609e-17	1.54780529e-05	3.27727324e-18	1.14126810e+00	1.14126810e+00	2.09015821e-16	2.02461275e-16	-2.14550951e-03	-2.17646562e-03
0.034           	2.27761690e+00	4.05911313e-16	-4.31866758e-03	-2.37155783e-17	5.85650528e-06	3.56241999e-18	1.13880845e+00	1.13880845e+00	2.06518076e-16	1.99393236e-16	-2.15347729e-03	-2.16519030e-03
0.0345          	2.27284512e+00	4.00466212e-16	-4.31297918e-03	-2.21619066e-17	-3.50883648e-06	3.82976606e-18	1.13642256e+00	1.13642256e+00	2.04062872e-16	1.96403340e-16	-2.15999843e-03	-2.15298075e-03
0.035           	2.26852455e+00	3.95125480e-16	-4.39631238e-03	-2.06210660e-17	-1.26995016e-05	4.08836528e-18	1.13426228e+00	1.13426228e+00	2.01651105e-16	1.93474375e-16	-2.21085569e-03	-2.18545669e-03
0.0355          	2.26432399e+00	3.89829711e-16	-4.27985909e-03	-1.91288595e-17	-2.14661600e-05	4.31821508e-18	1.13216200e+00	1.13216200e+00	1.99233071e-16	1.90596641e-16	-2.16139570e-03	-2.11846338e-03
0.036           	2.26034969e+00	3.84643442e-16	-4.07589623e-03	-1.76874446e-17	-2.98799285e-05	4.53408371e-18	1.13017485e+00	1.13017485e+00	1.96855804e-16	1.87787637e-16	-2.06782804e-03	-2.00806818e-03
0.0365          	2.25683473e+00	3.79549331e-16	-4.12103382e-03	-1.62406679e-17	-3.82207024e-05	4.75219568e-18	1.12841737e+00	1.12841737e+00	1.94526861e-16	1.85022470e-16	-2.09873761e-03	-2.02229621e-03
0.037           	2.25342282e+00	3.74585464e-16	-4.34996248e-03	-1.48528742e-17	-4.65019611e-05	4.95682927e-18	1.12671141e+00	1.12671141e+00	1.92249561e-16	1.82335903e-16	-2.22148320e-03	-2.12847928e-03
0.0375          	2.25022625e+00	3.69679154e-16	-4.47547283e-03	-1.34957915e-17	-5.47267227e-05	5.14310064e-18	1.12511312e+00	1.12511312e+00	1.89982677e-16	1.79696476e-16	-2.29246314e-03	-2.18300969e-03
0.038           	2.24742804e+00	3.64833632e-16	-4.45541343e-03	-1.21451042e-17	-6.27439710e-05	5.32640609e-18	1.12371402e+00	1.12371402e+00	1.87743222e-16	1.77090410e-16	-2.29045068e-03	-2.16496274e-03
0.0385          	2.24482367e+00	3.60105160e-16	-4.53359232e-03	-1.08350069e-17	-7.06059132e-05	5.50435648e-18	1.12241184e+00	1.12241184e+00	1.85556937e-16	1.74548224e-16	-2.33740207e-03	-2.19619025e-03
0.039           	2.24242553e+00	3.55427289e-16	-4.51583367e-03	-9.55341551e-18	-7.82664793e-05	5.66503912e-18	1.12121276e+00	1.12121276e+00	1.83378684e-16	1.72048605e-16	-2.33618332e-03	-2.17965036e-03
0.0395          	2.24032508e+00	3.50822204e-16	-4.58431477e-03	-8.28202419e-18	-8.58409014e-05	5.82130986e-18	1.12016254e+00	1.12016254e+00	1.81232412e-16	1.69589792e-16	-2.37799829e-03	-2.20631648e-03
0.04            	2.23814127e+00	3.46255445e-16	-4.37332211e-03	-7.08093224e-18	-9.31185573e-05	5.94282243e-18	1.11907063e+00	1.11907063e+00	1.79070545e-16	1.67184900e-16	-2.27977961e-03	-2.09354250e-03
0.0405          	2.23633291e+00	3.41817109e-16	-4.45517135e-03	-5.88499734e-18	-1.00369061e-04	6.08185221e-18	1.11816646e+00	1.11816646e+00	1.76990406e-16	1.64826702e-16	-2.32795474e-03	-2.12721661e-03
0.041           	2.23470097e+00	3.37461538e-16	-4.64942544e-03	-4.71541309e-18	-1.07586527e-04	6.21069565e-18	1.11735048e+00	1.11735048e+00	1.74941465e-16	1.62520074e-16	-2.43229925e-03	-2.21712620e-03
0.0415          	2.23330368e+00	3.33157610e-16	-4.67273230e-03	-3.56998251e-18	-1.14745130e-04	6.33497301e-18	1.11665184e+00	1.11665184e+00	1.72913778e-16	1.60243832e-16	-2.45111128e-03	-2.22162102e-03
0.042           	2.23205046e+00	3.28898265e-16	-4.66981964e-03	-2.44232059e-18	-1.21757483e-04	6.44145633e-18	1.11602523e+00	1.11602523e+00	1.70890589e-16	1.58007676e-16	-2.45666731e-03	-2.21315234e-03
0.0425          	2.23103941e+00	3.24680482e-16	-4.71070564e-03	-1.31928261e-18	-1.28585717e-04	6.54010283e-18	1.11551971e+00	1.11551971e+00	1.68880344e-16	1.55800138e-16	-2.48393854e-03	-2.22676710e-03
0.043           	2.23018574e+00	3.20586202e-16	-4.82680435e-03	-2.46870379e-19	-1.35483509e-04	6.63615359e-18	1.11509287e+00	1.11509287e+00	1.66929255e-16	1.53656948e-16	-2.54888568e-03	-2.27791867e-03
0.0435          	2.22949946e+00	3.16525900e-16	-4.82091285e-03	8.14201498e-19	-1.42291104e-04	6.72936331e-18	1.11474973e+00	1.11474973e+00	1.64992313e-16	1.51533586e-16	-2.55274753e-03	-2.26816532e-03
0.044           	2.22879633e+00	3.12527179e-16	-4.87506077e-03	1.82705886e-18	-1.48986939e-04	6.80145940e-18	1.11439816e+00	1.11439816e+00	1.63065049e-16	1.49462130e-16	-2.58651732e-03	-2.28854345e-03
0.0445          	2.22835501e+00	3.08584424e-16	-4.81583524e-03	2.83020008e-18	-1.55532049e-04	6.87472801e-18	1.11417751e+00	1.11417751e+00	1.61166940e-16	1.47417484e-16	-2.56344967e-03	-2.25238557e-03
0.045           	2.22814603e+00	3.04718464e-16	-4.95937941e-03	3.81621787e-18	-1.62250398e-04	6.94221408e-18	1.11407301e+00	1.11407301e+00	1.59301446e-16	1.45417018e-16	-2.64194010e-03	-2.31743931e-03
0.0455          	2.22791898e+00	3.00835083e-16	-4.89769279e-03	4.80304638e-18	-1.68702839e-04	6.99758502e-18	1.11395949e+00	1.11395949e+00	1.57415126e-16	1.43419956e-16	-2.61754923e-03	-2.28014355e-03
0.046           	2.22794265e+00	2.97061610e-16	-5.01515074e-03	5.75728198e-18	-1.75150664e-04	7.05158243e-18	1.11397133e+00	1.11397133e+00	1.55582387e-16	1.41479222e-16	-2.68272603e-03	-2.33242471e-03
0.0465          	2.22808724e+00	2.93330655e-16	-5.03990343e-03	6.69646187e-18	-1.81585817e-04	7.09997402e-18	1.11404362e+00	1.11404362e+00	1.53765302e-16	1.39565354e-16	-2.70153753e-03	-2.33836590e-03
0.047           	2.22838632e+00	2.89635693e-16	-5.10431784e-03	7.61640267e-18	-1.87746330e-04	7.13744021e-18	1.11419316e+00	1.11419316e+00	1.51955287e-16	1.37680407e-16	-2.73990525e-03	-2.36441259e-03
0.0475          	2.22882347e+00	2.86025609e-16	-5.23277423e-03	8.50027409e-18	-1.94131243e-04	7.16986181e-18	1.11441173e+00	1.11441173e+00	1.50182666e-16	1.35842943e-16	-2.81051836e-03	-2.42225587e-03
0.048           	2.22929084e+00	2.82427126e-16	-5.16576020e-03	9.36769333e-18	-2.00418960e-04	7.19243851e-18	1.11464542e+00	1.11464542e+00	1.48406001e-16	1.34021124e-16	-2.78329906e-03	-2.38246114e-03
0.0485          	2.22994443e+00	2.78884034e-16	-5.20653792e-03	1.02263074e-17	-2.06658781e-04	7.21467206e-18	1.11497221e+00	1.11497221e+00	1.46656689e-16	1.32227345e-16	-2.80992774e-03	-2.39661018e-03
0.049           	2.23070227e+00	2.75384689e-16	-5.25596515e-03	1.10678612e-17	-2.12889303e-04	7.23114789e-18	1.11535113e+00	1.11535113e+00	1.44923492e-16	1.30461196e-16	-2.84087188e-03	-2.41509327e-03
0.0495          	2.23159042e+00	2.71940484e-16	-5.31937259e-03	1.18954042e-17	-2.19065022e-04	7.24359001e-18	1.11579521e+00	1.11579521e+00	1.43213832e-16	1.28726652e-16	-2.87875132e-03	-2.44062127e-03
0.05            	2.23258799e+00	2.68531550e-16	-5.37142453e-03	1.27057598e-17	-2.25214864e-04	7.24947919e-18	1.11629399e+00	1.11629399e+00	1.41515254e-16	1.27016296e-16	-2.91092713e-03	-2.46049740e-03
0.0505          	2.23366941e+00	2.65167574e-16	-5.44116609e-03	1.34973794e-17	-2.31337104e-04	7.24946636e-18	1.11683471e+00	1.11683471e+00	1.39833253e-16	1.25334321e-16	-2.95192015e-03	-2.48924594e-03
0.051           	2.23488409e+00	2.61846544e-16	-5.52484400e-03	1.42798876e-17	-2.37448160e-04	7.24926173e-18	1.11744205e+00	1.11744205e+00	1.38172534e-16	1.23674010e-16	-2.99987016e-03	-2.52497384e-03
0.0515          	2.23618477e+00	2.58567197e-16	-5.60976250e-03	1.50442157e-17	-2.43552470e-04	7.24314627e-18	1.11809239e+00	1.11809239e+00	1.36526745e-16	1.22040452e-16	-3.04843372e-03	-2.56132878e-03
0.052           	2.23750963e+00	2.55313068e-16	-5.56829356e-03	1.57821274e-17	-2.49591515e-04	7.22505287e-18	1.11875481e+00	1.11875481e+00	1.34881587e-16	1.20431481e-16	-3.03373829e-03	-2.53455526e-03
0.0525          	2.23899739e+00	2.52108816e-16	-5.63767100e-03	1.65164766e-17	-2.55629210e-04	7.20897389e-18	1.11949870e+00	1.11949870e+00	1.33263382e-16	1.18845434e-16	-3.07446471e-03	-2.56320629e-03
0.053           	2.24058341e+00	2.48937665e-16	-5.69901026e-03	1.72366370e-17	-2.61653668e-04	7.18762880e-18	1.12029170e+00	1.12029170e+00	1.31656462e-16	1.17281204e-16	-3.11115880e-03	-2.58785146e-03
0.0535          	2.24224993e+00	2.45808969e-16	-5.76768613e-03	1.79421577e-17	-2.67673878e-04	7.16433437e-18	1.12112497e+00	1.12112497e+00	1.30068819e-16	1.15740150e-16	-3.15151694e-03	-2.61616919e-03
0.054           	2.24398906e+00	2.42710718e-16	-5.83768961e-03	1.86337153e-17	-2.73672734e-04	7.13367305e-18	1.12199453e+00	1.12199453e+00	1.28489032e-16	1.14221686e-16	-3.19251754e-03	-2.64517207e-03
0.0545          	2.24584610e+00	2.39647570e-16	-5.90121227e-03	1.93132699e-17	-2.79690458e-04	7.10151752e-18	1.12292305e+00	1.12292305e+00	1.26925303e-16	1.12722268e-16	-3.23029659e-03	-2.67091568e-03
0.055           	2.24775998e+00	2.36624953e-16	-5.97685973e-03	1.99797448e-17	-2.85710047e-04	7.06750545e-18	1.12387999e+00	1.12387999e+00	1.25379982e-16	1.11244971e-16	-3.27413991e-03	-2.70271982e-03
0.0555          	2.24976343e+00	2.33625619e-16	-6.02172722e-03	2.06313756e-17	-2.91727235e-04	7.02694840e-18	1.12488171e+00	1.12488171e+00	1.23839758e-16	1.09785861e-16	-3.30259085e-03	-2.71913638e-03
0.056           	2.25181470e+00	2.30666608e-16	-6.06129222e-03	2.12723313e-17	-2.97738965e-04	6.98623375e-18	1.12590735e+00	1.12590735e+00	1.22319538e-16	1.08347070e-16	-3.32838507e-03	-2.73290714e-03
0.0565          	2.25396128e+00	2.27735705e-16	-6.11806871e-03	2.18992781e-17	-3.03733165e-04	6.93858370e-18	1.12698064e+00	1.12698064e+00	1.20806436e-16	1.06929269e-16	-3.36276752e-03	-2.75530119e-03
0.057           	2.25618261e+00	2.24837765e-16	-6.20630681e-03	2.25171033e-17	-3.09738069e-04	6.89000159e-18	1.12809131e+00	1.12809131e+00	1.19308884e-16	1.05528881e-16	-3.41289147e-03	-2.79341534e-03
0.0575          	2.25846812e+00	2.21964145e-16	-6.25862429e-03	2.31241054e-17	-3.15731272e-04	6.83756534e-18	1.12923406e+00	1.12923406e+00	1.17819638e-16	1.04144507e-16	-3.44504342e-03	-2.81358087e-03
0.058           	2.26084071e+00	2.19122885e-16	-6.33166265e-03	2.37193372e-17	-3.21746648e-04	6.78246611e-18	1.13042035e+00	1.13042035e+00	1.16343909e-16	1.02778977e-16	-3.48757797e-03	-2.84408468e-03
0.0585          	2.26326741e+00	2.16312537e-16	-6.40288725e-03	2.43029089e-17	-3.27765397e-04	6.72455466e-18	1.13163370e+00	1.13163370e+00	1.14880823e-16	1.01431714e-16	-3.52920902e-03	-2.87367823e-03
0.059           	2.26576336e+00	2.13533552e-16	-6.48531426e-03	2.48759516e-17	-3.33789055e-04	6.66543876e-18	1.13288168e+00	1.13288168e+00	1.13432215e-16	1.00101337e-16	-3.57644618e-03	-2.90886807e-03
0.0595          	2.26831309e+00	2.10766152e-16	-6.53401248e-03	2.54397537e-17	-3.39819319e-04	6.59775447e-18	1.13415655e+00	1.13415655e+00	1.11980830e-16	9.87853213e-17	-3.60682556e-03	-2.92718692e-03
0.06            	2.27091282e+00	2.08038849e-16	-6.59673214e-03	2.59933905e-17	-3.45851860e-04	6.53320559e-18	1.13545641e+00	1.13545641e+00	1.10552630e-16	9.74862190e-17	-3.64421793e-03	-2.95251421e-03
0.0605          	2.27359104e+00	2.05335862e-16	-6.68065942e-03	2.65349579e-17	-3.51898165e-04	6.46345572e-18	1.13679552e+00	1.13679552e+00	1.09131387e-16	9.62044755e-17	-3.69222787e-03	-2.98843154e-03
0.061           	2.27631242e+00	2.02662835e-16	-6.75402059e-03	2.70682740e-17	-3.57965611e-04	6.39461066e-18	1.13815621e+00	1.13815621e+00	1.07726028e-16	9.49368068e-17	-3.73497591e-03	-3.01904468e-03
0.0615          	2.27910205e+00	2.00008943e-16	-6.83701675e-03	2.75935937e-17	-3.64047108e-04	6.32168002e-18	1.13955102e+00	1.13955102e+00	1.06326151e-16	9.36827913e-17	-3.78255548e-03	-3.05446127e-03
0.062           	2.28194957e+00	1.97372914e-16	-6.89483415e-03	2.81100585e-17	-3.70140335e-04	6.24502957e-18	1.14097478e+00	1.14097478e+00	1.04931486e-16	9.24414273e-17	-3.81755741e-03	-3.07727674e-03
0.0625          	2.28480269e+00	1.94764914e-16	-7.00739609e-03	2.86145897e-17	-3.76332021e-04	6.16699538e-18	1.14240135e+00	1.14240135e+00	1.03549452e-16	9.12154615e-17	-3.88003007e-03	-3.12736602e-03
0.063           	2.28781781e+00	1.92185695e-16	-7.02592705e-03	2.91148629e-17	-3.82384457e-04	6.08669539e-18	1.14390890e+00	1.14390890e+00	1.02179543e-16	9.00061521e-17	-3.89534798e-03	-3.13057907e-03
0.0635          	2.29079329e+00	1.89629635e-16	-7.10482819e-03	2.96038983e-17	-3.88458894e-04	6.00573048e-18	1.14539664e+00	1.14539664e+00	1.00820548e-16	8.88090869e-17	-3.94087299e-03	-3.16395520e-03
0.064           	2.29382268e+00	1.87085455e-16	-7.15604098e-03	3.00882961e-17	-3.94533172e-04	5.92264036e-18	1.14691134e+00	1.14691134e+00	9.94653677e-17	8.76200870e-17	-3.97255366e-03	-3.18348732e-03
0.0645          	2.29695381e+00	1.84582032e-16	-7.27744870e-03	3.05548953e-17	-4.00770912e-04	5.83526170e-18	1.14847690e+00	1.14847690e+00	9.81262775e-17	8.64557541e-17	-4.03949526e-03	-3.23795344e-03
0.065           	2.30009501e+00	1.82086871e-16	-7.35293674e-03	3.10214927e-17	-4.07007148e-04	5.74838467e-18	1.15004750e+00	1.15004750e+00	9.67918200e-17	8.52950506e-17	-4.08347552e-03	-3.26946122e-03
0.0655          	2.30327493e+00	1.79609459e-16	-7.42160187e-03	3.14808612e-17	-4.13241325e-04	5.65791571e-18	1.15163747e+00	1.15163747e+00	9.54626450e-17	8.41468136e-17	-4.12404226e-03	-3.29755961e-03
0.066           	2.30649066e+00	1.77163962e-16	-7.49771927e-03	3.19298603e-17	-4.19477529e-04	5.57049667e-18	1.15324533e+00	1.15324533e+00	9.41524779e-17	8.30114845e-17	-4.16833716e-03	-3.32938211e-03
0.0665          	2.30977035e+00	1.74738395e-16	-7.57091060e-03	3.23709157e-17	-4.25723056e-04	5.47760327e-18	1.15488517e+00	1.15488517e+00	9.28468008e-17	8.18915943e-17	-4.21117835e-03	-3.35973224e-03
0.067           	2.31312290e+00	1.72323798e-16	-7.61378569e-03	3.28084719e-17	-4.31953834e-04	5.38285012e-18	1.15656145e+00	1.15656145e+00	9.15447493e-17	8.07790491e-17	-4.23884668e-03	-3.37493901e-03
0.0675          	2.31638090e+00	1.69932175e-16	-7.78792726e-03	3.32323286e-17	-4.38441174e-04	5.29111612e-18	1.15819045e+00	1.15819045e+00	9.02572038e-17	7.96749716e-17	-4.33240480e-03	-3.45552246e-03
0.068           	2.31980303e+00	1.67566301e-16	-7.90771192e-03	3.36511966e-17	-4.44909239e-04	5.19132984e-18	1.15990152e+00	1.15990152e+00	8.89744804e-17	7.85918207e-17	-4.39876520e-03	-3.50894672e-03
0.0685          	2.32319458e+00	1.65197941e-16	-7.93668929e-03	3.40737575e-17	-4.51260937e-04	5.09463721e-18	1.16159729e+00	1.16159729e+00	8.76936077e-17	7.75043333e-17	-4.41960558e-03	-3.51708371e-03
0.069           	2.32661638e+00	1.62855410e-16	-7.99125736e-03	3.44874731e-17	-4.57568412e-04	4.99670635e-18	1.16330819e+00	1.16330819e+00	8.64244113e-17	7.64309986e-17	-4.45319709e-03	-3.53806027e-03
0.0695          	2.33011257e+00	1.60538701e-16	-8.07897834e-03	3.48893390e-17	-4.63952089e-04	4.89591699e-18	1.16505628e+00	1.16505628e+00	8.51652674e-17	7.53734334e-17	-4.50344126e-03	-3.57553708e-03
0.07            	2.33360623e+00	1.58237922e-16	-8.20878223e-03	3.52851353e-17	-4.70495983e-04	4.79585286e-18	1.16680312e+00	1.16680312e+00	8.39148139e-17	7.43231082e-17	-4.57488710e-03	-3.63389513e-03
0.0705          	2.33723101e+00	1.55958668e-16	-8.21210523e-03	3.56760354e-17	-4.76879460e-04	4.68973034e-18	1.16861551e+00	1.16861551e+00	8.26690642e-17	7.32896036e-17	-4.58293207e-03	-3.62917315e-03
0.071           	2.34081562e+00	1.53693853e-16	-8.30451297e-03	3.60605760e-17	-4.83329012e-04	4.58554751e-18	1.17040781e+00	1.17040781e+00	8.14324740e-17	7.22613790e-17	-4.63558550e-03	-3.66892747e-03
0.0715          	2.34440482e+00	1.51426167e-16	-8.35616217e-03	3.64464612e-17	-4.89728569e-04	4.47939478e-18	1.17220241e+00	1.17220241e+00	8.01924782e-17	7.12336887e-17	-4.66780965e-03	-3.68835252e-03
0.072           	2.34811398e+00	1.49217847e-16	-8.51815516e-03	3.68081852e-17	-4.96386489e-04	4.37076129e-18	1.17405699e+00	1.17405699e+00	7.89796846e-17	7.02381620e-17	-4.75546407e-03	-3.76269109e-03
0.0725          	2.35178844e+00	1.46998320e-16	-8.59307716e-03	3.71776468e-17	-5.03051036e-04	4.26334657e-18	1.17589422e+00	1.17589422e+00	7.77625067e-17	6.92358136e-17	-4.79958961e-03	-3.79348754e-03