# Force coefficients
# dragDir       : (1.00000000e+00 0.00000000e+00 0.00000000e+00)
# sideDir       : (0.00000000e+00 0.00000000e+00 -1.00000000e+00)
# liftDir       : (0.00000000e+00 1.00000000e+00 0.00000000e+00)
# rollAxis      : (1.00000000e+00 0.00000000e+00 0.00000000e+00)
# pitchAxis     : (0.00000000e+00 0.00000000e+00 -1.00000000e+00)
# yawAxis       : (0.00000000e+00 1.00000000e+00 0.00000000e+00)
# magUInf       : 1.00000000e+00
# lRef          : 1.00000000e-01
# Aref          : 1.00000000e-03
# CofR          : (2.00000000e-01 2.00000000e-01 5.00000000e-03)
#
# Time          	Cd              	Cs              	Cl              	CmRoll          	CmPitch         	CmYaw           	Cd(f)           	Cd(r)           	Cs(f)           	Cs(r)           	Cl(f)           	Cl(r)           
0.002           	5.58826498e+02	1.87369059e-13	-4.55223023e-01	1.45671367e-02	1.85122144e-01	1.78824479e+01	2.79427816e+02	2.79398682e+02	1.78824479e+01	-1.78824479e+01	-4.24893672e-02	-4.12733656e-01
0.003           	7.95369511e+00	-3.11916959e-16	2.08532885e-02	-6.67305233e-04	-4.51182870e-02	2.54518243e-01	3.97618025e+00	3.97751486e+00	2.54518243e-01	-2.54518243e-01	-3.46916427e-02	5.55449313e-02
0.004           	7.28506640e+00	-1.01891244e-16	2.47013831e-03	-7.90444258e-05	-2.97305840e-02	2.33122125e-01	3.64245416e+00	3.64261224e+00	2.33122125e-01	-2.33122125e-01	-2.84955148e-02	3.09656531e-02
0.005           	6.87476567e+00	-9.83577913e-17	1.40381484e-03	-4.49220747e-05	-2.40638839e-02	2.19992501e-01	3.43733791e+00	3.43742776e+00	2.19992501e-01	-2.19992501e-01	-2.33619765e-02	2.47657913e-02
0.006           	6.58695227e+00	-1.05009499e-16	1.83243585e-03	-5.86379472e-05	-2.00116388e-02	2.10782473e-01	3.29341750e+00	3.29353478e+00	2.10782473e-01	-2.10782473e-01	-1.90954209e-02	2.09278568e-02
0.007           	6.33120317e+00	-1.13766259e-16	2.02769892e-03	-6.48863655e-05	-1.65675454e-02	2.02598501e-01	3.16553670e+00	3.16566647e+00	2.02598501e-01	-2.02598501e-01	-1.55536960e-02	1.75813949e-02
0.008           	6.09246878e+00	-1.23255667e-16	-6.04657809e-04	1.93490499e-05	-1.23099105e-02	1.94959001e-01	3.04625374e+00	3.04621504e+00	1.94959001e-01	-1.94959001e-01	-1.26122394e-02	1.20075816e-02
0.009           	5.87872673e+00	-1.33189216e-16	1.38025194e-03	-4.41680620e-05	-1.08559351e-02	1.88119255e-01	2.93931919e+00	2.93940753e+00	1.88119255e-01	-1.88119255e-01	-1.01658091e-02	1.15460610e-02
0.01            	5.68618450e+00	-1.42853407e-16	-5.64087863e-04	1.80508116e-05	-7.84581646e-03	1.81957904e-01	2.84311030e+00	2.84307420e+00	1.81957904e-01	-1.81957904e-01	-8.12786039e-03	7.56377253e-03
0.011           	5.50991369e+00	-1.51763115e-16	-4.12833485e-03	1.32106715e-04	-4.36519172e-03	1.76317238e-01	2.75508895e+00	2.75482474e+00	1.76317238e-01	-1.76317238e-01	-6.42935914e-03	2.30102429e-03
0.012           	5.35107125e+00	-1.60210090e-16	-5.56876190e-03	1.78200381e-04	-2.22752632e-03	1.71234280e-01	2.67571383e+00	2.67535743e+00	1.71234280e-01	-1.71234280e-01	-5.01190727e-03	-5.56854629e-04
0.013           	5.20485363e+00	-1.67650251e-16	-5.23038648e-03	1.67372367e-04	-1.21258898e-03	1.66555316e-01	2.60259419e+00	2.60225944e+00	1.66555316e-01	-1.66555316e-01	-3.82778222e-03	-1.40260426e-03
0.014           	5.07167705e+00	-1.74360098e-16	-5.13981072e-03	1.64473943e-04	-2.68695749e-04	1.62293666e-01	2.53600300e+00	2.53567405e+00	1.62293666e-01	-1.62293666e-01	-2.83860111e-03	-2.30120961e-03
0.015           	4.94963256e+00	-1.80390817e-16	-5.78113384e-03	1.84996283e-04	8.78652202e-04	1.58388242e-01	2.47500128e+00	2.47463129e+00	1.58388242e-01	-1.58388242e-01	-2.01191472e-03	-3.76921912e-03
0.016           	4.83840817e+00	-1.85874968e-16	-6.14822807e-03	1.96743298e-04	1.75145338e-03	1.54829062e-01	2.41940083e+00	2.41900734e+00	1.54829062e-01	-1.54829062e-01	-1.32266065e-03	-4.82556742e-03
0.017           	4.73535421e+00	-1.91318509e-16	-5.90869573e-03	1.89078263e-04	2.20473580e-03	1.51531335e-01	2.36786618e+00	2.36748803e+00	1.51531335e-01	-1.51531335e-01	-7.49612064e-04	-5.15908367e-03
0.018           	4.64122455e+00	-1.96197201e-16	-6.17324547e-03	1.97543855e-04	2.81319673e-03	1.48519186e-01	2.32080982e+00	2.32041473e+00	1.48519186e-01	-1.48519186e-01	-2.73426005e-04	-5.89981946e-03
0.019           	4.55529371e+00	-2.00870062e-16	-6.78121274e-03	2.16998808e-04	3.51070958e-03	1.45769399e-01	2.27786386e+00	2.27742986e+00	1.45769399e-01	-1.45769399e-01	1.20103214e-04	-6.90131595e-03
0.02            	4.47596254e+00	-2.05242333e-16	-6.17159629e-03	1.97491081e-04	3.53082789e-03	1.43230801e-01	2.23817876e+00	2.23778378e+00	1.43230801e-01	-1.43230801e-01	4.45029745e-04	-6.61662604e-03
0.021           	4.40301468e+00	-2.09597562e-16	-7.25744638e-03	2.32238284e-04	4.33853457e-03	1.40896470e-01	2.20173958e+00	2.20127510e+00	1.40896470e-01	-1.40896470e-01	7.09811386e-04	-7.96725776e-03
0.022           	4.33628769e+00	-2.13581741e-16	-7.13734438e-03	2.28395020e-04	4.49340815e-03	1.38761206e-01	2.16837224e+00	2.16791545e+00	1.38761206e-01	-1.38761206e-01	9.24735963e-04	-8.06208034e-03
0.023           	4.27462313e+00	-2.17576271e-16	-7.17697820e-03	2.29663302e-04	4.68504858e-03	1.36787940e-01	2.13754123e+00	2.13708190e+00	1.36787940e-01	-1.36787940e-01	1.09655948e-03	-8.27353768e-03
0.024           	4.21780238e+00	-2.21422522e-16	-6.72517320e-03	2.15205542e-04	4.59576668e-03	1.34969676e-01	2.10911639e+00	2.10868598e+00	1.34969676e-01	-1.34969676e-01	1.23318008e-03	-7.95835328e-03
0.025           	4.16540649e+00	-2.25259101e-16	-7.56979395e-03	2.42233406e-04	5.12399404e-03	1.33293008e-01	2.08294548e+00	2.08246101e+00	1.33293008e-01	-1.33293008e-01	1.33909706e-03	-8.90889101e-03
0.026           	4.11736721e+00	-2.29154070e-16	-7.25766823e-03	2.32245383e-04	5.04763116e-03	1.31755751e-01	2.05891585e+00	2.05845136e+00	1.31755751e-01	-1.31755751e-01	1.41879705e-03	-8.67646528e-03
0.027           	4.07289462e+00	-2.33000963e-16	-7.99357320e-03	2.55794342e-04	5.47222403e-03	1.30332628e-01	2.03670310e+00	2.03619152e+00	1.30332628e-01	-1.30332628e-01	1.47543743e-03	-9.46901063e-03
0.028           	4.03214684e+00	-2.36820721e-16	-8.28497205e-03	2.65119106e-04	5.65567588e-03	1.29028699e-01	2.01633854e+00	2.01580830e+00	1.29028699e-01	-1.29028699e-01	1.51318986e-03	-9.79816191e-03
0.029           	3.99420088e+00	-2.40703305e-16	-8.67592523e-03	2.77629607e-04	5.87268659e-03	1.27814428e-01	1.99737807e+00	1.99682281e+00	1.27814428e-01	-1.27814428e-01	1.53472398e-03	-1.02106492e-02
0.03            	3.95953187e+00	-2.44439229e-16	-8.13741566e-03	2.60397301e-04	5.61252950e-03	1.26705020e-01	1.98002633e+00	1.97950554e+00	1.26705020e-01	-1.26705020e-01	1.54382166e-03	-9.68123733e-03
0.031           	3.92743280e+00	-2.48365497e-16	-7.80304956e-03	2.49697586e-04	5.44311186e-03	1.25677850e-01	1.96396610e+00	1.96346670e+00	1.25677850e-01	-1.25677850e-01	1.54158708e-03	-9.34463664e-03
0.032           	3.89819339e+00	-2.52220422e-16	-6.97447057e-03	2.23183058e-04	5.01799821e-03	1.24742188e-01	1.94931988e+00	1.94887351e+00	1.24742188e-01	-1.24742188e-01	1.53076292e-03	-8.50523350e-03
0.033           	3.87138294e+00	-2.56240446e-16	-8.49210267e-03	2.71747285e-04	5.75602339e-03	1.23884254e-01	1.93596322e+00	1.93541973e+00	1.23884254e-01	-1.23884254e-01	1.50997206e-03	-1.00020747e-02
0.034           	3.84726726e+00	-2.60036393e-16	-1.01077472e-02	3.23447910e-04	6.53475076e-03	1.23112552e-01	1.92395708e+00	1.92331018e+00	1.23112552e-01	-1.23112552e-01	1.48087716e-03	-1.15886244e-02
0.035           	3.82457296e+00	-2.65093578e-16	-1.01660922e-02	3.25314951e-04	6.52705933e-03	1.22386335e-01	1.91261179e+00	1.91196116e+00	1.22386335e-01	-1.22386335e-01	1.44401321e-03	-1.16101054e-02
0.036           	3.80452055e+00	-2.69072440e-16	-7.43773986e-03	2.38007676e-04	5.12734231e-03	1.21744658e-01	1.90249828e+00	1.90202227e+00	1.21744658e-01	-1.21744658e-01	1.40847238e-03	-8.84621224e-03
0.037           	3.78556956e+00	-2.72408917e-16	-6.44901520e-03	2.06368486e-04	4.59522184e-03	1.21138226e-01	1.89299115e+00	1.89257841e+00	1.21138226e-01	-1.21138226e-01	1.37071425e-03	-7.81972944e-03
0.038           	3.76722359e+00	-2.75418719e-16	-7.26760412e-03	2.32563332e-04	4.96216436e-03	1.20551155e-01	1.88384436e+00	1.88337923e+00	1.20551155e-01	-1.20551155e-01	1.32836230e-03	-8.59596642e-03
0.039           	3.75136655e+00	-2.78943661e-16	-8.29216380e-03	2.65349242e-04	5.42743601e-03	1.20043730e-01	1.87594862e+00	1.87541793e+00	1.20043730e-01	-1.20043730e-01	1.28135410e-03	-9.57351791e-03
0.04            	3.73731168e+00	-2.82721525e-16	-8.13928258e-03	2.60457043e-04	5.30315412e-03	1.19593974e-01	1.86891629e+00	1.86839538e+00	1.19593974e-01	-1.19593974e-01	1.23351283e-03	-9.37279541e-03
0.041           	3.72485516e+00	-2.86748370e-16	-8.20575242e-03	2.62584077e-04	5.28723026e-03	1.19195365e-01	1.86269016e+00	1.86216500e+00	1.19195365e-01	-1.19195365e-01	1.18435405e-03	-9.39010647e-03
0.042           	3.71379357e+00	-2.90790019e-16	-7.95396961e-03	2.54527028e-04	5.11056240e-03	1.18841394e-01	1.85715131e+00	1.85664226e+00	1.18841394e-01	-1.18841394e-01	1.13357759e-03	-9.08754721e-03
0.043           	3.70417140e+00	-2.94625285e-16	-7.16790135e-03	2.29372843e-04	4.66708085e-03	1.18533485e-01	1.85231507e+00	1.85185633e+00	1.18533485e-01	-1.18533485e-01	1.08313018e-03	-8.25103153e-03
0.044           	3.69595948e+00	-2.98769514e-16	-6.02712013e-03	1.92867844e-04	4.04612525e-03	1.18270703e-01	1.84817261e+00	1.84778687e+00	1.18270703e-01	-1.18270703e-01	1.03256519e-03	-7.05968532e-03
0.045           	3.68812791e+00	-3.03025854e-16	-7.32818243e-03	2.34501838e-04	4.64365989e-03	1.18020093e-01	1.84429846e+00	1.84382945e+00	1.18020093e-01	-1.18020093e-01	9.79568675e-04	-8.30775111e-03
0.046           	3.68145177e+00	-3.07516441e-16	-8.78943849e-03	2.81262032e-04	5.32049149e-03	1.17806457e-01	1.84100715e+00	1.84044462e+00	1.17806457e-01	-1.17806457e-01	9.25772245e-04	-9.71521074e-03
0.047           	3.67548475e+00	-3.12633079e-16	-1.19102502e-02	3.81128007e-04	6.82362763e-03	1.17615512e-01	1.83812350e+00	1.83736124e+00	1.17615512e-01	-1.17615512e-01	8.68502529e-04	-1.27787527e-02
0.048           	3.66995895e+00	-3.17541223e-16	-1.23513742e-02	3.95243973e-04	6.98722717e-03	1.17438686e-01	1.83537472e+00	1.83458423e+00	1.17438686e-01	-1.17438686e-01	8.11540092e-04	-1.31629142e-02
0.049           	3.66614637e+00	-3.22178096e-16	-7.09212748e-03	2.26948079e-04	4.30899245e-03	1.17316684e-01	1.83330013e+00	1.83284624e+00	1.17316684e-01	-1.17316684e-01	7.62928716e-04	-7.85505619e-03
0.05            	3.66430267e+00	-3.26667553e-16	-6.99537544e-03	2.23852014e-04	4.21151179e-03	1.17257685e-01	1.83237519e+00	1.83192748e+00	1.17257685e-01	-1.17257685e-01	7.13824070e-04	-7.70919951e-03
0.051           	3.66176854e+00	-3.30248264e-16	-7.86040315e-03	2.51532901e-04	4.59444218e-03	1.17176593e-01	1.83113580e+00	1.83063274e+00	1.17176593e-01	-1.17176593e-01	6.64240601e-04	-8.52464375e-03
0.052           	3.66097695e+00	-3.33877359e-16	-6.81032259e-03	2.17930323e-04	4.02120142e-03	1.17151262e-01	1.83070640e+00	1.83027054e+00	1.17151262e-01	-1.17151262e-01	6.16040123e-04	-7.42636272e-03
0.053           	3.65995842e+00	-3.38327003e-16	-6.10156211e-03	1.95249988e-04	3.61933648e-03	1.17118670e-01	1.83017446e+00	1.82978396e+00	1.17118670e-01	-1.17118670e-01	5.68555427e-04	-6.67011754e-03
0.054           	3.66087714e+00	-3.42991632e-16	-7.79344657e-03	2.49390290e-04	4.41589451e-03	1.17148069e-01	1.83068796e+00	1.83018918e+00	1.17148069e-01	-1.17148069e-01	5.19171221e-04	-8.31261779e-03
0.055           	3.66197299e+00	-3.46954427e-16	-7.83017350e-03	2.50565552e-04	4.38544073e-03	1.17183136e-01	1.83123706e+00	1.83073593e+00	1.17183136e-01	-1.17183136e-01	4.70353978e-04	-8.30052747e-03
0.056           	3.66278548e+00	-3.51426104e-16	-6.52393874e-03	2.08766040e-04	3.68614072e-03	1.17209135e-01	1.83160151e+00	1.83118397e+00	1.17209135e-01	-1.17209135e-01	4.24171351e-04	-6.94811009e-03
0.057           	3.66577230e+00	-3.55742521e-16	-6.79856660e-03	2.17554131e-04	3.77778044e-03	1.17304714e-01	1.83310371e+00	1.83266860e+00	1.17304714e-01	-1.17304714e-01	3.78497146e-04	-7.17706374e-03
0.058           	3.66899317e+00	-3.59875880e-16	-5.66771654e-03	1.81366929e-04	3.16966782e-03	1.17407781e-01	1.83467795e+00	1.83431522e+00	1.17407781e-01	-1.17407781e-01	3.35809548e-04	-6.00352609e-03
0.059           	3.67099838e+00	-3.65413202e-16	-9.06054780e-03	2.89937530e-04	4.81681441e-03	1.17471948e-01	1.83578913e+00	1.83520925e+00	1.17471948e-01	-1.17471948e-01	2.86540508e-04	-9.34708831e-03
0.06            	3.67243074e+00	-3.70074653e-16	-1.05696213e-02	3.38227881e-04	5.52331454e-03	1.17517784e-01	1.83655360e+00	1.83587714e+00	1.17517784e-01	-1.17517784e-01	2.38503898e-04	-1.08081252e-02
0.061           	3.67600944e+00	-3.74779889e-16	-1.02130279e-02	3.26816894e-04	5.30042325e-03	1.17632302e-01	1.83833154e+00	1.83767791e+00	1.17632302e-01	-1.17632302e-01	1.93909280e-04	-1.04069372e-02
0.062           	3.67935681e+00	-3.80021528e-16	-7.95211390e-03	2.54467645e-04	4.12688994e-03	1.17739418e-01	1.83993287e+00	1.83942394e+00	1.17739418e-01	-1.17739418e-01	1.50832988e-04	-8.10294689e-03
0.063           	3.68232395e+00	-3.84047779e-16	-6.21918808e-03	1.99014019e-04	3.22307243e-03	1.17834366e-01	1.84136099e+00	1.84096296e+00	1.17834366e-01	-1.17834366e-01	1.13478385e-04	-6.33266647e-03
0.064           	3.68853700e+00	-3.88994464e-16	-6.37376204e-03	2.03960385e-04	3.26163792e-03	1.18033184e-01	1.84447246e+00	1.84406454e+00	1.18033184e-01	-1.18033184e-01	7.47569002e-05	-6.44851894e-03
0.065           	3.69430887e+00	-3.93613046e-16	-6.28548525e-03	2.01135528e-04	3.17787241e-03	1.18217884e-01	1.84735557e+00	1.84695330e+00	1.18217884e-01	-1.18217884e-01	3.51297877e-05	-6.32061504e-03
0.066           	3.69895203e+00	-3.98265922e-16	-6.41906140e-03	2.05409965e-04	3.20584210e-03	1.18366465e-01	1.84968143e+00	1.84927061e+00	1.18366465e-01	-1.18366465e-01	-3.68859833e-06	-6.41537280e-03
0.067           	3.70570856e+00	-4.03043343e-16	-6.59389354e-03	2.11004593e-04	3.25468224e-03	1.18582674e-01	1.85306528e+00	1.85264327e+00	1.18582674e-01	-1.18582674e-01	-4.22645329e-05	-6.55162901e-03
0.068           	3.71217407e+00	-4.07715531e-16	-6.42486587e-03	2.05595708e-04	3.13196382e-03	1.18789570e-01	1.85629263e+00	1.85588144e+00	1.18789570e-01	-1.18789570e-01	-8.04691149e-05	-6.34439676e-03
0.069           	3.71861058e+00	-4.12639357e-16	-6.41649455e-03	2.05327826e-04	3.08992994e-03	1.18995539e-01	1.85951062e+00	1.85909996e+00	1.18995539e-01	-1.18995539e-01	-1.18317339e-04	-6.29817721e-03
0.07            	3.72482290e+00	-4.17225294e-16	-6.71354397e-03	2.14833407e-04	3.20124440e-03	1.19194333e-01	1.86262628e+00	1.86219661e+00	1.19194333e-01	-1.19194333e-01	-1.55527590e-04	-6.55801638e-03
0.071           	3.73176279e+00	-4.22121134e-16	-6.68217317e-03	2.13829541e-04	3.14903641e-03	1.19416409e-01	1.86609522e+00	1.86566756e+00	1.19416409e-01	-1.19416409e-01	-1.92050175e-04	-6.49012299e-03
0.072           	3.73959192e+00	-4.27009664e-16	-6.35610177e-03	2.03395257e-04	2.95046381e-03	1.19666941e-01	1.86999935e+00	1.86959256e+00	1.19666941e-01	-1.19666941e-01	-2.27587077e-04	-6.12851469e-03
0.073           	3.74704762e+00	-4.32143015e-16	-7.89541143e-03	2.52653166e-04	3.68458168e-03	1.19905524e-01	1.87377646e+00	1.87327116e+00	1.19905524e-01	-1.19905524e-01	-2.63124030e-04	-7.63228740e-03
0.074           	3.75406111e+00	-4.37031313e-16	-7.79536150e-03	2.49451568e-04	3.59901661e-03	1.20129956e-01	1.87728001e+00	1.87678110e+00	1.20129956e-01	-1.20129956e-01	-2.98664143e-04	-7.49669736e-03
0.075           	3.76133530e+00	-4.41720292e-16	-7.37448684e-03	2.35983579e-04	3.35381246e-03	1.20362730e-01	1.88090364e+00	1.88043167e+00	1.20362730e-01	-1.20362730e-01	-3.33430957e-04	-7.04105588e-03
0.076           	3.76907169e+00	-4.46698198e-16	-6.89065490e-03	2.20500957e-04	3.07838692e-03	1.20610294e-01	1.88475635e+00	1.88431534e+00	1.20610294e-01	-1.20610294e-01	-3.66940535e-04	-6.52371437e-03
0.077           	3.77594501e+00	-4.51487148e-16	-6.42389960e-03	2.05564787e-04	2.81209605e-03	1.20830240e-01	1.88817807e+00	1.88776694e+00	1.20830240e-01	-1.20830240e-01	-3.99853749e-04	-6.02404585e-03
0.078           	3.78488994e+00	-4.56431915e-16	-6.53449432e-03	2.09103818e-04	2.83469822e-03	1.21116478e-01	1.89265407e+00	1.89223587e+00	1.21116478e-01	-1.21116478e-01	-4.32548941e-04	-6.10194538e-03
0.079           	3.79291449e+00	-4.61030689e-16	-6.25106864e-03	2.00034196e-04	2.66125185e-03	1.21373264e-01	1.89665728e+00	1.89625721e+00	1.21373264e-01	-1.21373264e-01	-4.64282473e-04	-5.78678617e-03
0.08            	3.80162155e+00	-4.66188218e-16	-6.51463321e-03	2.08468263e-04	2.76135841e-03	1.21651889e-01	1.90101924e+00	1.90060230e+00	1.21651889e-01	-1.21651889e-01	-4.95958200e-04	-6.01867501e-03
0.081           	3.81123113e+00	-4.71187051e-16	-6.72180996e-03	2.15097919e-04	2.83360770e-03	1.21959396e-01	1.90583066e+00	1.90540047e+00	1.21959396e-01	-1.21959396e-01	-5.27297282e-04	-6.19451268e-03
0.082           	3.81987473e+00	-4.75970368e-16	-6.77269240e-03	2.16726157e-04	2.82768253e-03	1.22235991e-01	1.91015409e+00	1.90972064e+00	1.22235991e-01	-1.22235991e-01	-5.58663671e-04	-6.21402873e-03
0.083           	3.82847001e+00	-4.81005099e-16	-6.89455223e-03	2.20625671e-04	2.85753129e-03	1.22511040e-01	1.91445563e+00	1.91401438e+00	1.22511040e-01	-1.22511040e-01	-5.89744828e-04	-6.30480740e-03
0.084           	3.83827383e+00	-4.86024455e-16	-6.55292125e-03	2.09693480e-04	2.65608830e-03	1.22824763e-01	1.91934661e+00	1.91892722e+00	1.22824763e-01	-1.22824763e-01	-6.20372324e-04	-5.93254892e-03
0.085           	3.84795525e+00	-4.90914101e-16	-6.99374199e-03	2.23799744e-04	2.84602520e-03	1.23134568e-01	1.92420143e+00	1.92375383e+00	1.23134568e-01	-1.23134568e-01	-6.50845792e-04	-6.34289620e-03
0.086           	3.85619608e+00	-4.95791269e-16	-6.66937096e-03	2.13419871e-04	2.65425408e-03	1.23398274e-01	1.92831146e+00	1.92788462e+00	1.23398274e-01	-1.23398274e-01	-6.80431402e-04	-5.98893956e-03
0.087           	3.86577050e+00	-5.00639112e-16	-6.88415515e-03	2.20292965e-04	2.73252318e-03	1.23704656e-01	1.93310555e+00	1.93266496e+00	1.23704656e-01	-1.23704656e-01	-7.09554396e-04	-6.17460075e-03
0.088           	3.87565515e+00	-5.05506037e-16	-8.01312337e-03	2.56419948e-04	3.26785268e-03	1.24020965e-01	1.93808399e+00	1.93757115e+00	1.24020965e-01	-1.24020965e-01	-7.38709007e-04	-7.27441436e-03
0.089           	3.88567757e+00	-5.10646768e-16	-7.83359965e-03	2.50675189e-04	3.14946624e-03	1.24341682e-01	1.94308946e+00	1.94258811e+00	1.24341682e-01	-1.24341682e-01	-7.67333584e-04	-7.06626607e-03
0.09            	3.89407771e+00	-5.15311338e-16	-7.85964121e-03	2.51508519e-04	3.13391319e-03	1.24610487e-01	1.94729036e+00	1.94678735e+00	1.24610487e-01	-1.24610487e-01	-7.95907417e-04	-7.06373379e-03
0.091           	3.90466222e+00	-5.20370887e-16	-7.61890849e-03	2.43805072e-04	2.98521747e-03	1.24949191e-01	1.95257492e+00	1.95208731e+00	1.24949191e-01	-1.24949191e-01	-8.24236770e-04	-6.79467172e-03
0.092           	3.91390223e+00	-5.25307203e-16	-7.50392702e-03	2.40125665e-04	2.89969361e-03	1.25244871e-01	1.95719124e+00	1.95671099e+00	1.25244871e-01	-1.25244871e-01	-8.52269897e-04	-6.65165712e-03
0.093           	3.92423340e+00	-5.30437554e-16	-7.07514105e-03	2.26404513e-04	2.65744768e-03	1.25575469e-01	1.96234310e+00	1.96189030e+00	1.25575469e-01	-1.25575469e-01	-8.80122844e-04	-6.19501820e-03
0.094           	3.93367207e+00	-5.35208859e-16	-7.37846889e-03	2.36111005e-04	2.78165984e-03	1.25877506e-01	1.96707214e+00	1.96659992e+00	1.25877506e-01	-1.25877506e-01	-9.07574608e-04	-6.47089428e-03
0.095           	3.94424922e+00	-5.40242335e-16	-7.97841309e-03	2.55309219e-04	3.05403908e-03	1.26215975e-01	1.97237992e+00	1.97186930e+00	1.26215975e-01	-1.26215975e-01	-9.35167459e-04	-7.04324563e-03
0.096           	3.95350558e+00	-5.45069313e-16	-7.65000165e-03	2.44800053e-04	2.86252973e-03	1.26512178e-01	1.97699759e+00	1.97650799e+00	1.26512178e-01	-1.26512178e-01	-9.62471098e-04	-6.68753055e-03
0.097           	3.96378900e+00	-5.50047289e-16	-7.68645210e-03	2.45966467e-04	2.85376670e-03	1.26841248e-01	1.98214047e+00	1.98164853e+00	1.26841248e-01	-1.26841248e-01	-9.89459351e-04	-6.69699275e-03
0.098           	3.97413420e+00	-5.55024853e-16	-7.77762931e-03	2.48884138e-04	2.87249929e-03	1.27172295e-01	1.98731599e+00	1.98681822e+00	1.27172295e-01	-1.27172295e-01	-1.01631536e-03	-6.76131395e-03
0.099           	3.98547170e+00	-5.60052823e-16	-7.66868615e-03	2.45397957e-04	2.79134798e-03	1.27535094e-01	1.99298125e+00	1.99249045e+00	1.27535094e-01	-1.27535094e-01	-1.04299509e-03	-6.62569106e-03
0.1             	3.99356716e+00	-5.64481393e-16	-7.69855290e-03	2.46353693e-04	2.78055035e-03	1.27794149e-01	1.99702993e+00	1.99653722e+00	1.27794149e-01	-1.27794149e-01	-1.06872610e-03	-6.62982680e-03
0.101           	4.00454757e+00	-5.69773339e-16	-8.46727523e-03	2.70952807e-04	3.13823118e-03	1.28145522e-01	2.00254474e+00	2.00200283e+00	1.28145522e-01	-1.28145522e-01	-1.09540644e-03	-7.37186880e-03
0.102           	4.01512605e+00	-5.74774312e-16	-8.76527061e-03	2.80488659e-04	3.26057905e-03	1.28484034e-01	2.00784351e+00	2.00728254e+00	1.28484034e-01	-1.28484034e-01	-1.12205625e-03	-7.64321435e-03
0.103           	4.02543765e+00	-5.79598982e-16	-8.82481472e-03	2.82394071e-04	3.26388682e-03	1.28814005e-01	2.01300122e+00	2.01243643e+00	1.28814005e-01	-1.28814005e-01	-1.14852054e-03	-7.67629418e-03
0.104           	4.03486229e+00	-5.84527142e-16	-8.47981381e-03	2.71354042e-04	3.06513669e-03	1.29115593e-01	2.01770250e+00	2.01715979e+00	1.29115593e-01	-1.29115593e-01	-1.17477022e-03	-7.30504359e-03
0.105           	4.04584267e+00	-5.89596701e-16	-8.49490311e-03	2.71836899e-04	3.04632134e-03	1.29466966e-01	2.02319317e+00	2.02264950e+00	1.29466966e-01	-1.29466966e-01	-1.20113021e-03	-7.29377289e-03
0.106           	4.05618462e+00	-5.94478995e-16	-9.02383803e-03	2.88762817e-04	3.28447933e-03	1.29797908e-01	2.02838107e+00	2.02780355e+00	1.29797908e-01	-1.29797908e-01	-1.22743969e-03	-7.79639835e-03
0.107           	4.06580298e+00	-5.99219122e-16	-9.25922512e-03	2.96295204e-04	3.37585802e-03	1.30105695e-01	2.03319779e+00	2.03260520e+00	1.30105695e-01	-1.30105695e-01	-1.25375454e-03	-8.00547058e-03
0.108           	4.07649952e+00	-6.04240881e-16	-9.16091478e-03	2.93149273e-04	3.30036482e-03	1.30447985e-01	2.03854291e+00	2.03795661e+00	1.30447985e-01	-1.30447985e-01	-1.28009257e-03	-7.88082221e-03
0.109           	4.08738135e+00	-6.09231603e-16	-9.09851301e-03	2.91152416e-04	3.24293496e-03	1.30796203e-01	2.04398183e+00	2.04339952e+00	1.30796203e-01	-1.30796203e-01	-1.30632155e-03	-7.79219146e-03
0.11            	4.09873146e+00	-6.14248074e-16	-8.67498127e-03	2.77599401e-04	3.00549827e-03	1.31159407e-01	2.04964333e+00	2.04908813e+00	1.31159407e-01	-1.31159407e-01	-1.33199236e-03	-7.34298891e-03
0.111           	4.10729565e+00	-6.18891034e-16	-9.28589947e-03	2.97148783e-04	3.28469817e-03	1.31433461e-01	2.05394497e+00	2.05335067e+00	1.31433461e-01	-1.31433461e-01	-1.35825156e-03	-7.92764791e-03
0.112           	4.11734716e+00	-6.23854543e-16	-1.04664661e-02	3.34926914e-04	3.84781237e-03	1.31755109e-01	2.05900851e+00	2.05833865e+00	1.31755109e-01	-1.31755109e-01	-1.38542066e-03	-9.08104540e-03
0.113           	4.12773546e+00	-6.28762896e-16	-1.05518185e-02	3.37658192e-04	3.86366655e-03	1.32087535e-01	2.06420539e+00	2.06353007e+00	1.32087535e-01	-1.32087535e-01	-1.41224270e-03	-9.13957581e-03
0.114           	4.13809856e+00	-6.33694137e-16	-1.10892075e-02	3.54854641e-04	4.10552902e-03	1.32419154e-01	2.06940413e+00	2.06869442e+00	1.32419154e-01	-1.32419154e-01	-1.43907475e-03	-9.65013279e-03
0.115           	4.14904653e+00	-6.38765308e-16	-1.10194524e-02	3.52622477e-04	4.04390143e-03	1.32769489e-01	2.07487589e+00	2.07417064e+00	1.32769489e-01	-1.32769489e-01	-1.46582478e-03	-9.55362764e-03
0.116           	4.15768217e+00	-6.43014480e-16	-1.04426801e-02	3.34165765e-04	3.72973225e-03	1.33045829e-01	2.07917525e+00	2.07850692e+00	1.33045829e-01	-1.33045829e-01	-1.49160782e-03	-8.95107232e-03
0.117           	4.16757660e+00	-6.47779600e-16	-1.06432940e-02	3.40585408e-04	3.80414120e-03	1.33362451e-01	2.08412889e+00	2.08344771e+00	1.33362451e-01	-1.33362451e-01	-1.51750580e-03	-9.12578819e-03
0.118           	4.17800510e+00	-6.52617526e-16	-1.07027537e-02	3.42488117e-04	3.80787174e-03	1.33696163e-01	2.08934504e+00	2.08866006e+00	1.33696163e-01	-1.33696163e-01	-1.54350509e-03	-9.15924858e-03
0.119           	4.18891849e+00	-6.57529516e-16	-1.16188127e-02	3.71802008e-04	4.23946018e-03	1.34045392e-01	2.09483105e+00	2.09408744e+00	1.34045392e-01	-1.34045392e-01	-1.56994619e-03	-1.00488666e-02
0.12            	4.19842179e+00	-6.62124153e-16	-1.14597259e-02	3.66711230e-04	4.13373958e-03	1.34349497e-01	2.09957761e+00	2.09884418e+00	1.34349497e-01	-1.34349497e-01	-1.59612338e-03	-9.86360255e-03
0.121           	4.20857769e+00	-6.66901956e-16	-1.16006153e-02	3.71219690e-04	4.17780211e-03	1.34674486e-01	2.10466006e+00	2.10391763e+00	1.34674486e-01	-1.34674486e-01	-1.62250554e-03	-9.97810977e-03
0.122           	4.21868832e+00	-6.71655861e-16	-1.25853927e-02	4.02732567e-04	4.64330764e-03	1.34998026e-01	2.10974689e+00	2.10894143e+00	1.34998026e-01	-1.34998026e-01	-1.64938873e-03	-1.09360040e-02
0.123           	4.22934384e+00	-6.76413665e-16	-1.23665259e-02	3.95728830e-04	4.50725910e-03	1.35339003e-01	2.11506765e+00	2.11427619e+00	1.35339003e-01	-1.35339003e-01	-1.67600387e-03	-1.06905221e-02
0.124           	4.23975813e+00	-6.81043389e-16	-1.21028888e-02	3.87292443e-04	4.34950460e-03	1.35672260e-01	2.12026636e+00	2.11949177e+00	1.35672260e-01	-1.35672260e-01	-1.70193982e-03	-1.04009490e-02
0.125           	4.25061173e+00	-6.85810598e-16	-1.22645221e-02	3.92464706e-04	4.40422540e-03	1.36019575e-01	2.12569833e+00	2.12491340e+00	1.36019575e-01	-1.36019575e-01	-1.72803563e-03	-1.05364864e-02
0.126           	4.26042021e+00	-6.90381021e-16	-1.25335879e-02	4.01074814e-04	4.51252272e-03	1.36333447e-01	2.13061118e+00	2.12980903e+00	1.36333447e-01	-1.36333447e-01	-1.75427125e-03	-1.07793167e-02
0.127           	4.26968090e+00	-6.94757933e-16	-1.28505436e-02	4.11217396e-04	4.64481071e-03	1.36629789e-01	2.13525167e+00	2.13442924e+00	1.36629789e-01	-1.36629789e-01	-1.78046111e-03	-1.10700825e-02
0.128           	4.27975671e+00	-6.99348699e-16	-1.21859015e-02	3.89948848e-04	4.28655937e-03	1.36952215e-01	2.14026831e+00	2.13948841e+00	1.36952215e-01	-1.36952215e-01	-1.80639138e-03	-1.03795101e-02
0.129           	4.29012027e+00	-7.04161407e-16	-1.27665186e-02	4.08528595e-04	4.54982046e-03	1.37283849e-01	2.14546866e+00	2.14465161e+00	1.37283849e-01	-1.37283849e-01	-1.83343884e-03	-1.09330798e-02
0.13            	4.29999073e+00	-7.08721419e-16	-1.34693538e-02	4.31019321e-04	4.87419808e-03	1.37599703e-01	2.15042638e+00	2.14956435e+00	1.37599703e-01	-1.37599703e-01	-1.86047881e-03	-1.16088750e-02
0.131           	4.31016549e+00	-7.13152163e-16	-1.36546085e-02	4.36947473e-04	4.93996058e-03	1.37925296e-01	2.15551969e+00	2.15464580e+00	1.37925296e-01	-1.37925296e-01	-1.88734369e-03	-1.17672648e-02
0.132           	4.32026795e+00	-7.17489552e-16	-1.41883466e-02	4.54027091e-04	5.18001404e-03	1.38248575e-01	2.16058800e+00	2.15967995e+00	1.38248575e-01	-1.38248575e-01	-1.91415925e-03	-1.22741873e-02
0.133           	4.33077018e+00	-7.22014051e-16	-1.39246062e-02	4.45587399e-04	5.02148465e-03	1.38584646e-01	2.16583068e+00	2.16493950e+00	1.38584646e-01	-1.38584646e-01	-1.94081846e-03	-1.19837878e-02
0.134           	4.34041767e+00	-7.26300905e-16	-1.39165851e-02	4.45330724e-04	4.99103155e-03	1.38893365e-01	2.17065417e+00	2.16976350e+00	1.38893365e-01	-1.38893365e-01	-1.96726101e-03	-1.19493241e-02
0.135           	4.35098490e+00	-7.30651859e-16	-1.40655041e-02	4.50096132e-04	5.03925923e-03	1.39231517e-01	2.17594255e+00	2.17504235e+00	1.39231517e-01	-1.39231517e-01	-1.99349283e-03	-1.20720113e-02
0.136           	4.35973392e+00	-7.34653134e-16	-1.45027156e-02	4.64086899e-04	5.23191733e-03	1.39511485e-01	2.18033105e+00	2.17940287e+00	1.39511485e-01	-1.39511485e-01	-2.01944048e-03	-1.24832751e-02
0.137           	4.36970820e+00	-7.38854751e-16	-1.48990822e-02	4.76770630e-04	5.40425329e-03	1.39830662e-01	2.18533087e+00	2.18437733e+00	1.39830662e-01	-1.39830662e-01	-2.04528780e-03	-1.28537944e-02
0.138           	4.37964862e+00	-7.43002061e-16	-1.51015691e-02	4.83250211e-04	5.47978871e-03	1.40148756e-01	2.19030756e+00	2.18934106e+00	1.40148756e-01	-1.40148756e-01	-2.07099584e-03	-1.30305733e-02
0.139           	4.38953476e+00	-7.47112101e-16	-1.51274328e-02	4.84077851e-04	5.46725614e-03	1.40465112e-01	2.19525146e+00	2.19428330e+00	1.40465112e-01	-1.40465112e-01	-2.09646027e-03	-1.30309726e-02
0.14            	4.39940287e+00	-7.51162861e-16	-1.52222314e-02	4.87111403e-04	5.48934637e-03	1.40780892e-01	2.20018855e+00	2.19921433e+00	1.40780892e-01	-1.40780892e-01	-2.12176931e-03	-1.31004620e-02
0.141           	4.40897087e+00	-7.55094229e-16	-1.54907409e-02	4.95703708e-04	5.59857296e-03	1.41087068e-01	2.20498114e+00	2.20398973e+00	1.41087068e-01	-1.41087068e-01	-2.14679748e-03	-1.33439434e-02
0.142           	4.41888701e+00	-7.59019579e-16	-1.57048963e-02	5.02556682e-04	5.68089025e-03	1.41404384e-01	2.20994606e+00	2.20894095e+00	1.41404384e-01	-1.41404384e-01	-2.17155792e-03	-1.35333384e-02
0.143           	4.42909428e+00	-7.62914837e-16	-1.58118734e-02	5.05979950e-04	5.71002058e-03	1.41731017e-01	2.21505312e+00	2.21404116e+00	1.41731017e-01	-1.41731017e-01	-2.19591614e-03	-1.36159573e-02
0.144           	4.43792829e+00	-7.66627572e-16	-1.56545987e-02	5.00947160e-04	5.60706496e-03	1.42013705e-01	2.21946509e+00	2.21846320e+00	1.42013705e-01	-1.42013705e-01	-2.22023441e-03	-1.34343643e-02
0.145           	4.44773996e+00	-7.70351561e-16	-1.66007254e-02	5.31223211e-04	6.05601865e-03	1.42327679e-01	2.22440121e+00	2.22333876e+00	1.42327679e-01	-1.42327679e-01	-2.24434402e-03	-1.43563813e-02